 Gaussian 16, Revision C.01,
 Gaussian 16:  ES64L-G16RevC.01  3-Jul-2019

 -------------------------------------------------------------------
 # B3LYP/6-31G* guess=read geom=check nosymm integral(ultrafinegrid)
 -------------------------------------------------------------------

 ------------------------------------------------------
 Candidate Structure: Conf:746 Charge calc in gas phase
 ------------------------------------------------------
 Structure from the checkpoint file:  "conf-746.chk"
 Charge =  1 Multiplicity = 1

                          Input orientation:
 ---------------------------------------------------------------------
 Center     Atomic      Atomic             Coordinates (Angstroms)
 Number     Number       Type             X           Y           Z
 ---------------------------------------------------------------------
      1          7           0        0.383937   -3.789343    2.940361
      2          1           0        0.577664   -4.115503    3.888489
      3          1           0       -0.180118   -4.494013    2.456088
      4          1           0        1.282153   -3.584985    2.357254
      5          6           0       -0.240914   -2.406893    2.861877
      6          1           0        0.094561   -1.888148    3.766145
      7          6           0        0.516054   -1.786977    1.645012
      8          6           0       -1.766485   -2.425366    2.802757
      9          1           0       -2.085697   -1.385471    2.917446
     10          1           0       -2.153175   -2.950114    3.684664
     11          8           0        1.621076   -2.355500    1.382163
     12          6           0       -2.372899   -3.031130    1.508813
     13          1           0       -3.004636   -3.893305    1.729564
     14          1           0       -1.580490   -3.374604    0.826818
     15          6           0       -3.252265   -2.052276    0.706149
     16          8           0       -2.714247   -0.849089    0.458801
     17          8           0       -4.352165   -2.361042    0.316012
     18          7           0       -0.066597   -0.759242    1.080873
     19          1           0       -1.766826   -0.784459    0.793492
     20          6           0        0.618663   -0.167203   -0.072562
     21          1           0        0.014296    0.709113   -0.349284
     22          6           0        1.992431    0.417156    0.291241
     23          6           0        0.664306   -1.105509   -1.304504
     24          1           0        1.348127   -1.930422   -1.092469
     25          1           0       -0.345042   -1.528767   -1.386154
     26          8           0        2.953038    0.443633   -0.502868
     27          6           0        1.030495   -0.453815   -2.624562
     28          6           0        0.327262    0.651417   -3.129593
     29          1           0       -0.507026    1.066510   -2.568699
     30          6           0        2.065782   -0.973678   -3.414606
     31          1           0        2.631184   -1.828279   -3.052829
     32          6           0        0.647756    1.226177   -4.363044
     33          1           0        0.076464    2.059953   -4.759899
     34          6           0        2.390283   -0.427862   -4.658116
     35          1           0        3.184950   -0.870013   -5.256308
     36          8           0        1.928629    1.260271   -6.350324
     37          1           0        2.533552    0.703898   -6.866636
     38          6           0        1.673540    0.673837   -5.146354
     39          7           0        2.067437    0.999342    1.499652
     40          1           0        1.291333    0.857691    2.136261
     41          6           0        3.256810    1.706176    1.974299
     42          1           0        4.118813    1.031958    1.869290
     43          6           0        3.155089    1.989684    3.474170
     44          6           0        3.548598    3.016413    1.182722
     45          1           0        2.609475    3.310708    0.700117
     46          1           0        3.791419    3.806806    1.897549
     47          8           0        3.871492    2.764861    4.057364
     48          6           0        4.697855    2.897400    0.156429
     49          1           0        4.797632    1.856479   -0.163649
     50          1           0        5.643288    3.157472    0.645602
     51          6           0        4.545640    3.807575   -1.077346
     52          1           0        4.429973    4.853194   -0.764755
     53          1           0        5.471789    3.775555   -1.667713
     54          6           0        3.362961    3.503945   -2.001455
     55          1           0        2.401842    3.585580   -1.488683
     56          1           0        3.350292    4.188288   -2.853447
     57          7           0        3.405351    2.101656   -2.559316
     58          1           0        2.667573    1.950016   -3.266443
     59          1           0        3.238307    1.382398   -1.798993
     60          1           0        4.305225    1.899020   -3.003982
     61          8           0        2.198108    1.254527    4.093015
     62          1           0        2.225669    1.507592    5.036278
 ---------------------------------------------------------------------

 SCF Done:  E(RB3LYP) =  -1526.18933799     A.U. after    3 cycles

 Alpha  occ. eigenvalues --  -19.30952 -19.27787 -19.24663 -19.23855 -19.23296
 Alpha  occ. eigenvalues --  -19.22179 -19.18507 -14.56129 -14.56057 -14.47370
 Alpha  occ. eigenvalues --  -14.40525 -10.43141 -10.40440 -10.37589 -10.37586
 Alpha  occ. eigenvalues --  -10.37318 -10.36872 -10.35546 -10.35450 -10.32593
 Alpha  occ. eigenvalues --  -10.31714 -10.30988 -10.29821 -10.29586 -10.29476
 Alpha  occ. eigenvalues --  -10.29457 -10.29400 -10.29310 -10.29180 -10.29144
 Alpha  occ. eigenvalues --  -10.28112  -1.21627  -1.15956  -1.15388  -1.14520
 Alpha  occ. eigenvalues --   -1.14117  -1.12586  -1.11148  -1.09150  -1.06500
 Alpha  occ. eigenvalues --   -1.04129  -0.98986  -0.95616  -0.92397  -0.91083
 Alpha  occ. eigenvalues --   -0.88695  -0.87484  -0.85100  -0.83854  -0.82932
 Alpha  occ. eigenvalues --   -0.81198  -0.77817  -0.75714  -0.74587  -0.72429
 Alpha  occ. eigenvalues --   -0.72083  -0.71053  -0.70848  -0.69930  -0.69148
 Alpha  occ. eigenvalues --   -0.69052  -0.68290  -0.67555  -0.66383  -0.65085
 Alpha  occ. eigenvalues --   -0.64601  -0.63061  -0.61667  -0.60778  -0.59574
 Alpha  occ. eigenvalues --   -0.58777  -0.58630  -0.58023  -0.57831  -0.57601
 Alpha  occ. eigenvalues --   -0.57359  -0.56699  -0.56672  -0.54755  -0.54059
 Alpha  occ. eigenvalues --   -0.53401  -0.53003  -0.52657  -0.52583  -0.52250
 Alpha  occ. eigenvalues --   -0.51869  -0.51260  -0.50993  -0.50670  -0.50235
 Alpha  occ. eigenvalues --   -0.49472  -0.48977  -0.48639  -0.48265  -0.47969
 Alpha  occ. eigenvalues --   -0.47213  -0.46275  -0.45783  -0.45722  -0.45162
 Alpha  occ. eigenvalues --   -0.44946  -0.44855  -0.44529  -0.43499  -0.42927
 Alpha  occ. eigenvalues --   -0.42590  -0.42427  -0.39412  -0.38448  -0.37611
 Alpha  occ. eigenvalues --   -0.37133  -0.36312  -0.35927  -0.34862  -0.33664
 Alpha  occ. eigenvalues --   -0.32163  -0.31772
 Alpha virt. eigenvalues --   -0.11120  -0.10439  -0.09825  -0.09606  -0.08790
 Alpha virt. eigenvalues --   -0.07355  -0.06662  -0.04643  -0.03538  -0.03195
 Alpha virt. eigenvalues --   -0.02849  -0.02356  -0.01010  -0.00590  -0.00378

 Mulliken charges:
               1
     1  N   -0.761483
     2  H    0.398939
     3  H    0.401517
     4  H    0.426411
     5  C   -0.109653
     6  H    0.201423
     7  C    0.605891
     8  C   -0.295871
     9  H    0.205867
    10  H    0.169251
    11  O   -0.617531
    12  C   -0.403157
    13  H    0.191967
    14  H    0.158590
    15  C    0.584120
    16  O   -0.613504
    17  O   -0.437429
    18  N   -0.623064
    19  H    0.460238
    20  C   -0.054819
    21  H    0.164000
    22  C    0.645609
    23  C   -0.360490
    24  H    0.184976
    25  H    0.174260
    26  O   -0.595492
    27  C    0.171342
    28  C   -0.206165
    29  H    0.160124
    30  C   -0.196494
    31  H    0.154450
    32  C   -0.212975
    33  H    0.169317
    34  C   -0.218681
    35  H    0.145165
    36  O   -0.630253
    37  H    0.420887
    38  C    0.333611
    39  N   -0.607325
    40  H    0.370099
    41  C   -0.016149
    42  H    0.214810
    43  C    0.574056
    44  C   -0.292014
    45  H    0.145900
    46  H    0.201537
    47  O   -0.433025
    48  C   -0.291610
    49  H    0.164814
    50  H    0.176026
    51  C   -0.296643
    52  H    0.187854
    53  H    0.162935
    54  C   -0.190212
    55  H    0.201678
    56  H    0.207220
    57  N   -0.790010
    58  H    0.410480
    59  H    0.469169
    60  H    0.391379
    61  O   -0.583059
    62  H    0.431197
 Sum of Mulliken charges =   1.00000

 Dipole moment (field-independent basis, Debye):
    X=             15.1145    Y=             -0.4956    Z=              1.3566  Tot=             15.1833
 Quadrupole moment (field-independent basis, Debye-Ang):
   XX=           -164.8087   YY=           -117.9467   ZZ=            -97.0887
   XY=             17.5565   XZ=            -38.7313   YZ=            -46.3386

 Normal termination of Gaussian 16 at Tue May 24 03:13:44 2022.
