 Gaussian 16, Revision C.01,
 Gaussian 16:  ES64L-G16RevC.01  3-Jul-2019

 -------------------------------------------------------------------
 # B3LYP/6-31G* guess=read geom=check nosymm integral(ultrafinegrid)
 -------------------------------------------------------------------

 ------------------------------------------------------
 Candidate Structure: Conf:428 Charge calc in gas phase
 ------------------------------------------------------
 Structure from the checkpoint file:  "conf-428.chk"
 Charge =  1 Multiplicity = 1

                          Input orientation:
 ---------------------------------------------------------------------
 Center     Atomic      Atomic             Coordinates (Angstroms)
 Number     Number       Type             X           Y           Z
 ---------------------------------------------------------------------
      1          7           0        0.189777   -4.039962    2.692341
      2          1           0        0.818204   -3.889177    3.477790
      3          1           0       -0.365789   -4.866179    2.898446
      4          1           0        0.954854   -3.668228    1.113511
      5          6           0       -0.659132   -2.859631    2.434406
      6          1           0       -0.667600   -2.171412    3.285616
      7          6           0       -0.022942   -2.115024    1.244012
      8          6           0       -2.109457   -3.314198    2.144739
      9          1           0       -2.465739   -3.832058    3.044167
     10          1           0       -2.086680   -4.053813    1.333150
     11          8           0        0.876584   -2.826108    0.570060
     12          6           0       -3.124918   -2.212062    1.781786
     13          1           0       -4.108635   -2.676383    1.679517
     14          1           0       -2.859859   -1.758449    0.821680
     15          6           0       -3.249870   -1.133326    2.862931
     16          8           0       -4.122064   -1.146582    3.699371
     17          8           0       -2.298699   -0.178582    2.849974
     18          7           0       -0.379334   -0.911431    0.979536
     19          1           0       -1.643197   -0.338237    2.114261
     20          6           0        0.189685   -0.147229   -0.134515
     21          1           0       -0.352338    0.806736   -0.129344
     22          6           0        1.682346    0.195142    0.086134
     23          6           0       -0.014554   -0.783046   -1.533915
     24          1           0        0.532876   -1.725501   -1.577261
     25          1           0       -1.083014   -1.008210   -1.635146
     26          8           0        2.598511   -0.398711   -0.475949
     27          6           0        0.436294    0.130306   -2.657839
     28          6           0       -0.280785    1.287347   -2.993856
     29          1           0       -1.209592    1.516020   -2.477011
     30          6           0        1.611880   -0.142224   -3.373178
     31          1           0        2.181134   -1.033821   -3.133528
     32          6           0        0.173530    2.171644   -3.976303
     33          1           0       -0.390587    3.073117   -4.206187
     34          6           0        2.067555    0.713689   -4.376050
     35          1           0        2.946124    0.459562   -4.964677
     36          8           0        1.899415    2.752549   -5.608123
     37          1           0        1.203255    3.332420   -5.958871
     38          6           0        1.352966    1.877789   -4.656729
     39          7           0        1.906814    1.265754    0.900657
     40          1           0        1.144298    1.745991    1.365488
     41          6           0        3.203874    1.920340    0.950031
     42          1           0        3.985878    1.187968    1.176309
     43          6           0        3.152328    2.963557    2.055721
     44          6           0        3.487647    2.554811   -0.438720
     45          1           0        3.362446    1.720244   -1.136113
     46          1           0        2.678538    3.269576   -0.636301
     47          8           0        2.130940    3.379835    2.554559
     48          6           0        4.858912    3.206267   -0.682935
     49          1           0        5.639507    2.686938   -0.116883
     50          1           0        4.872181    4.244857   -0.334318
     51          6           0        5.249383    3.135485   -2.177592
     52          1           0        6.193221    3.666822   -2.350789
     53          1           0        5.418877    2.078158   -2.429778
     54          6           0        4.154381    3.679409   -3.095141
     55          1           0        3.184512    3.241161   -2.861312
     56          1           0        4.066681    4.768216   -3.060056
     57          7           0        4.401592    3.308253   -4.551475
     58          1           0        3.500533    3.314935   -5.093453
     59          1           0        4.756822    2.347179   -4.610329
     60          1           0        5.091064    3.917682   -5.002455
     61          8           0        4.383140    3.399913    2.388127
     62          1           0        4.269525    4.074479    3.086068
 ---------------------------------------------------------------------

 SCF Done:  E(RB3LYP) =  -1526.18411927     A.U. after    1 cycles

 Alpha  occ. eigenvalues --  -19.32645 -19.29894 -19.26301 -19.24270 -19.21681
 Alpha  occ. eigenvalues --  -19.20486 -19.16702 -14.61129 -14.45073 -14.43058
 Alpha  occ. eigenvalues --  -14.40887 -10.42267 -10.39894 -10.37598 -10.37167
 Alpha  occ. eigenvalues --  -10.37028 -10.35488 -10.34169 -10.33800 -10.31949
 Alpha  occ. eigenvalues --  -10.31780 -10.31057 -10.30665 -10.30573 -10.30163
 Alpha  occ. eigenvalues --  -10.30054 -10.29868 -10.29703 -10.27994 -10.27765
 Alpha  occ. eigenvalues --  -10.25980  -1.20811  -1.19410  -1.16209  -1.15475
 Alpha  occ. eigenvalues --   -1.12688  -1.12533  -1.11847  -1.04693  -1.01865
 Alpha  occ. eigenvalues --   -0.99774  -0.99117  -0.96555  -0.94532  -0.89136
 Alpha  occ. eigenvalues --   -0.88343  -0.86428  -0.86026  -0.84191  -0.82590
 Alpha  occ. eigenvalues --   -0.78763  -0.78090  -0.75603  -0.75046  -0.74408
 Alpha  occ. eigenvalues --   -0.73110  -0.71932  -0.70800  -0.70210  -0.68938
 Alpha  occ. eigenvalues --   -0.67422  -0.66335  -0.66148  -0.64904  -0.64159
 Alpha  occ. eigenvalues --   -0.62186  -0.61401  -0.60969  -0.60131  -0.59233
 Alpha  occ. eigenvalues --   -0.59160  -0.58319  -0.57799  -0.57109  -0.56729
 Alpha  occ. eigenvalues --   -0.56534  -0.55466  -0.55102  -0.55043  -0.54123
 Alpha  occ. eigenvalues --   -0.53654  -0.53538  -0.53108  -0.52564  -0.51715
 Alpha  occ. eigenvalues --   -0.51253  -0.51002  -0.50109  -0.50000  -0.49547
 Alpha  occ. eigenvalues --   -0.49052  -0.48070  -0.47796  -0.47053  -0.46889
 Alpha  occ. eigenvalues --   -0.46283  -0.46197  -0.45818  -0.45671  -0.44899
 Alpha  occ. eigenvalues --   -0.44618  -0.44012  -0.43883  -0.42745  -0.41913
 Alpha  occ. eigenvalues --   -0.41592  -0.40102  -0.38039  -0.37399  -0.36495
 Alpha  occ. eigenvalues --   -0.36423  -0.35764  -0.34572  -0.34239  -0.33514
 Alpha  occ. eigenvalues --   -0.32377  -0.30328
 Alpha virt. eigenvalues --   -0.12821  -0.10963  -0.10686  -0.09435  -0.08022
 Alpha virt. eigenvalues --   -0.07421  -0.06635  -0.06307  -0.04939  -0.03429
 Alpha virt. eigenvalues --   -0.02238  -0.01823  -0.01157  -0.00915  -0.00231

 Mulliken charges:
               1
     1  N   -0.791998
     2  H    0.341593
     3  H    0.342286
     4  H    0.445936
     5  C   -0.068749
     6  H    0.193066
     7  C    0.591344
     8  C   -0.293325
     9  H    0.177817
    10  H    0.158759
    11  O   -0.596285
    12  C   -0.365969
    13  H    0.185212
    14  H    0.156471
    15  C    0.572687
    16  O   -0.445716
    17  O   -0.609335
    18  N   -0.546605
    19  H    0.442682
    20  C   -0.062652
    21  H    0.143243
    22  C    0.641305
    23  C   -0.366398
    24  H    0.199590
    25  H    0.163875
    26  O   -0.529584
    27  C    0.160470
    28  C   -0.189978
    29  H    0.159555
    30  C   -0.159067
    31  H    0.174379
    32  C   -0.181463
    33  H    0.148058
    34  C   -0.200412
    35  H    0.133901
    36  O   -0.701163
    37  H    0.437928
    38  C    0.322174
    39  N   -0.620772
    40  H    0.362499
    41  C   -0.021689
    42  H    0.200867
    43  C    0.581924
    44  C   -0.309755
    45  H    0.187798
    46  H    0.148996
    47  O   -0.449188
    48  C   -0.266270
    49  H    0.184546
    50  H    0.165830
    51  C   -0.303135
    52  H    0.173116
    53  H    0.166630
    54  C   -0.200303
    55  H    0.232296
    56  H    0.213017
    57  N   -0.762396
    58  H    0.448520
    59  H    0.408374
    60  H    0.411919
    61  O   -0.565628
    62  H    0.429174
 Sum of Mulliken charges =   1.00000

 Dipole moment (field-independent basis, Debye):
    X=             19.7163    Y=             10.8303    Z=            -17.0051  Tot=             28.1993
 Quadrupole moment (field-independent basis, Debye-Ang):
   XX=           -111.1374   YY=            -93.0524   ZZ=            -98.0323
   XY=             68.8836   XZ=            -37.5131   YZ=            -76.1298

 Normal termination of Gaussian 16 at Tue May 24 03:12:46 2022.
