 Gaussian 16, Revision C.01,
 Gaussian 16:  ES64L-G16RevC.01  3-Jul-2019

 -------------------------------------------------------------------
 # B3LYP/6-31G* guess=read geom=check nosymm integral(ultrafinegrid)
 -------------------------------------------------------------------

 ------------------------------------------------------
 Candidate Structure: Conf:315 Charge calc in gas phase
 ------------------------------------------------------
 Structure from the checkpoint file:  "conf-315.chk"
 Charge =  1 Multiplicity = 1

                          Input orientation:
 ---------------------------------------------------------------------
 Center     Atomic      Atomic             Coordinates (Angstroms)
 Number     Number       Type             X           Y           Z
 ---------------------------------------------------------------------
      1          7           0       -3.895984   -2.177365    1.943632
      2          1           0       -4.638324   -2.880134    1.971714
      3          1           0       -4.057200   -1.497219    2.694719
      4          1           0       -3.872066   -1.663539    1.016841
      5          6           0       -2.495054   -2.762668    2.023506
      6          1           0       -2.572336   -3.756166    1.568146
      7          6           0       -1.716909   -1.890071    0.986072
      8          6           0       -2.030091   -2.916506    3.476918
      9          1           0       -1.071192   -3.442972    3.464913
     10          1           0       -2.742843   -3.592581    3.967343
     11          8           0       -2.412876   -1.285356    0.154142
     12          6           0       -1.857246   -1.629196    4.295005
     13          1           0       -1.929069   -1.885310    5.358857
     14          1           0       -2.650783   -0.885762    4.132520
     15          6           0       -0.503354   -0.907238    4.114492
     16          8           0       -0.405860    0.256596    4.513621
     17          8           0        0.448516   -1.606230    3.578848
     18          7           0       -0.382544   -1.944853    1.001115
     19          1           0        0.050064   -2.103022    1.930464
     20          6           0        0.401374   -1.159212    0.019458
     21          1           0        0.065397   -0.118945    0.054185
     22          6           0        1.888268   -1.115174    0.434524
     23          6           0        0.218534   -1.699963   -1.423571
     24          1           0        0.514248   -2.755306   -1.457034
     25          1           0       -0.852059   -1.664299   -1.645813
     26          8           0        2.419368   -0.044899    0.740260
     27          6           0        0.995394   -0.906882   -2.454425
     28          6           0        0.632037    0.413500   -2.766702
     29          1           0       -0.222678    0.869353   -2.271385
     30          6           0        2.083553   -1.466899   -3.132243
     31          1           0        2.374840   -2.494277   -2.926862
     32          6           0        1.332441    1.153785   -3.710496
     33          1           0        1.047477    2.172115   -3.954094
     34          6           0        2.794422   -0.737736   -4.086861
     35          1           0        3.630660   -1.196021   -4.611506
     36          8           0        3.068373    1.350405   -5.294989
     37          1           0        3.781401    0.838241   -5.707747
     38          6           0        2.422395    0.578454   -4.377324
     39          7           0        2.554949   -2.297498    0.409400
     40          1           0        2.073093   -3.106856    0.027187
     41          6           0        4.012248   -2.395061    0.272492
     42          1           0        4.369058   -1.475717   -0.207476
     43          6           0        4.262124   -3.553376   -0.696056
     44          6           0        4.814831   -2.600787    1.582293
     45          1           0        4.418005   -3.478406    2.107691
     46          1           0        5.836270   -2.852436    1.283312
     47          8           0        3.395215   -4.297715   -1.108511
     48          6           0        4.831269   -1.361154    2.509745
     49          1           0        4.459616   -0.501107    1.944122
     50          1           0        5.866597   -1.121024    2.776307
     51          6           0        4.018857   -1.541141    3.808900
     52          1           0        3.153666   -2.193945    3.639298
     53          1           0        4.633703   -2.043565    4.564585
     54          6           0        3.504564   -0.229583    4.406524
     55          1           0        3.129990   -0.379444    5.422144
     56          1           0        4.273073    0.548714    4.432106
     57          7           0        2.340287    0.264830    3.602685
     58          1           0        1.843546    1.047625    4.039026
     59          1           0        1.595541   -0.514497    3.555723
     60          1           0        2.578856    0.496174    2.626765
     61          8           0        5.555348   -3.657790   -1.031768
     62          1           0        5.641543   -4.421382   -1.635089
 ---------------------------------------------------------------------

 SCF Done:  E(RB3LYP) =  -1526.22369052     A.U. after    1 cycles

 Alpha  occ. eigenvalues --  -19.30385 -19.26597 -19.25079 -19.24576 -19.23156
 Alpha  occ. eigenvalues --  -19.20875 -19.18926 -14.59649 -14.50830 -14.48376
 Alpha  occ. eigenvalues --  -14.46919 -10.43202 -10.43001 -10.40466 -10.40269
 Alpha  occ. eigenvalues --  -10.37887 -10.34631 -10.34312 -10.34019 -10.32840
 Alpha  occ. eigenvalues --  -10.32048 -10.30289 -10.29050 -10.29042 -10.28612
 Alpha  occ. eigenvalues --  -10.28178 -10.26843 -10.26615 -10.26409 -10.26155
 Alpha  occ. eigenvalues --  -10.25548  -1.21551  -1.18906  -1.14770  -1.13506
 Alpha  occ. eigenvalues --   -1.13270  -1.12724  -1.12619  -1.06597  -1.05547
 Alpha  occ. eigenvalues --   -1.03934  -1.03262  -0.93588  -0.92759  -0.90798
 Alpha  occ. eigenvalues --   -0.88588  -0.86665  -0.85185  -0.82062  -0.81837
 Alpha  occ. eigenvalues --   -0.80711  -0.76911  -0.75676  -0.74462  -0.73928
 Alpha  occ. eigenvalues --   -0.72474  -0.71557  -0.69772  -0.69406  -0.68752
 Alpha  occ. eigenvalues --   -0.68513  -0.66868  -0.66132  -0.65856  -0.64533
 Alpha  occ. eigenvalues --   -0.62763  -0.61733  -0.61258  -0.60850  -0.60022
 Alpha  occ. eigenvalues --   -0.59570  -0.58582  -0.57735  -0.57493  -0.56739
 Alpha  occ. eigenvalues --   -0.56413  -0.55789  -0.55126  -0.54844  -0.54367
 Alpha  occ. eigenvalues --   -0.53883  -0.53604  -0.53090  -0.52630  -0.51641
 Alpha  occ. eigenvalues --   -0.51397  -0.50768  -0.50677  -0.50033  -0.49690
 Alpha  occ. eigenvalues --   -0.49322  -0.49225  -0.48994  -0.47797  -0.47445
 Alpha  occ. eigenvalues --   -0.47163  -0.46837  -0.46179  -0.45679  -0.44546
 Alpha  occ. eigenvalues --   -0.44213  -0.43829  -0.43338  -0.43265  -0.42293
 Alpha  occ. eigenvalues --   -0.40992  -0.40739  -0.40113  -0.38975  -0.38605
 Alpha  occ. eigenvalues --   -0.36793  -0.36428  -0.35916  -0.35362  -0.33122
 Alpha  occ. eigenvalues --   -0.32402  -0.28937
 Alpha virt. eigenvalues --   -0.13234  -0.10441  -0.10199  -0.09748  -0.07548
 Alpha virt. eigenvalues --   -0.06487  -0.06179  -0.04685  -0.03155  -0.02420
 Alpha virt. eigenvalues --   -0.02360  -0.00837   0.00026   0.00257   0.00500

 Mulliken charges:
               1
     1  N   -0.751143
     2  H    0.413723
     3  H    0.412152
     4  H    0.433725
     5  C   -0.119400
     6  H    0.229549
     7  C    0.644382
     8  C   -0.301245
     9  H    0.212529
    10  H    0.164270
    11  O   -0.544193
    12  C   -0.380138
    13  H    0.204917
    14  H    0.143971
    15  C    0.605121
    16  O   -0.540998
    17  O   -0.656417
    18  N   -0.649949
    19  H    0.408802
    20  C   -0.032946
    21  H    0.198852
    22  C    0.590102
    23  C   -0.386382
    24  H    0.155080
    25  H    0.194943
    26  O   -0.541933
    27  C    0.161074
    28  C   -0.184237
    29  H    0.135364
    30  C   -0.216105
    31  H    0.142074
    32  C   -0.153534
    33  H    0.156052
    34  C   -0.192058
    35  H    0.128587
    36  O   -0.630855
    37  H    0.414229
    38  C    0.356103
    39  N   -0.590587
    40  H    0.363879
    41  C   -0.051609
    42  H    0.211451
    43  C    0.593087
    44  C   -0.277973
    45  H    0.158051
    46  H    0.185770
    47  O   -0.470349
    48  C   -0.293583
    49  H    0.165420
    50  H    0.164084
    51  C   -0.294785
    52  H    0.177562
    53  H    0.174743
    54  C   -0.184314
    55  H    0.198888
    56  H    0.191372
    57  N   -0.790009
    58  H    0.396513
    59  H    0.446882
    60  H    0.419481
    61  O   -0.550653
    62  H    0.432613
 Sum of Mulliken charges =   1.00000

 Dipole moment (field-independent basis, Debye):
    X=             -0.1801    Y=            -12.0726    Z=              8.5107  Tot=             14.7720
 Quadrupole moment (field-independent basis, Debye-Ang):
   XX=            -73.7621   YY=           -145.3368   ZZ=           -136.7165
   XY=              9.3916   XZ=            -19.9965   YZ=            -14.4100

 Normal termination of Gaussian 16 at Tue May 24 03:13:05 2022.
