 Gaussian 16, Revision C.01,
 Gaussian 16:  ES64L-G16RevC.01  3-Jul-2019

 -------------------------------------------------------------------
 # B3LYP/6-31G* guess=read geom=check nosymm integral(ultrafinegrid)
 -------------------------------------------------------------------

 ------------------------------------------------------
 Candidate Structure: Conf:205 Charge calc in gas phase
 ------------------------------------------------------
 Structure from the checkpoint file:  "conf-205.chk"
 Charge =  1 Multiplicity = 1

                          Input orientation:
 ---------------------------------------------------------------------
 Center     Atomic      Atomic             Coordinates (Angstroms)
 Number     Number       Type             X           Y           Z
 ---------------------------------------------------------------------
      1          7           0       -2.069192   -3.241896    2.331544
      2          1           0       -1.597755   -4.105927    2.049368
      3          1           0       -2.524529   -3.392348    3.235389
      4          1           0       -2.765503   -2.977402    1.577066
      5          6           0       -1.139579   -2.031249    2.322121
      6          1           0       -0.114911   -2.359076    2.480472
      7          6           0       -1.353150   -1.501066    0.870361
      8          6           0       -1.592414   -1.097481    3.463518
      9          1           0       -1.329185   -1.596582    4.406003
     10          1           0       -2.688993   -1.021912    3.429970
     11          8           0       -2.441611   -1.775617    0.332143
     12          6           0       -1.020721    0.327921    3.466782
     13          1           0       -1.317784    0.825182    4.394367
     14          1           0       -1.485288    0.908578    2.657295
     15          6           0        0.500590    0.482055    3.279366
     16          8           0        1.118688   -0.401174    2.619830
     17          8           0        0.987694    1.558979    3.725410
     18          7           0       -0.311717   -0.855968    0.354094
     19          1           0        0.434802   -0.666407    1.050395
     20          6           0       -0.189065   -0.265668   -0.999410
     21          1           0       -0.746797    0.680275   -1.021188
     22          6           0        1.329374    0.014756   -1.159537
     23          6           0       -0.698246   -1.181452   -2.129068
     24          1           0       -0.019863   -2.036983   -2.194930
     25          1           0       -1.687641   -1.550039   -1.851034
     26          8           0        2.084559   -0.791985   -1.686192
     27          6           0       -0.774215   -0.454956   -3.457388
     28          6           0       -1.899858    0.320155   -3.778809
     29          1           0       -2.726250    0.381887   -3.073279
     30          6           0        0.260956   -0.528763   -4.396733
     31          1           0        1.146095   -1.114859   -4.168183
     32          6           0       -1.995907    1.000303   -4.988318
     33          1           0       -2.871731    1.591208   -5.236932
     34          6           0        0.177049    0.142541   -5.616843
     35          1           0        0.988754    0.064375   -6.338429
     36          8           0       -1.097485    1.591199   -7.092408
     37          1           0       -0.332740    1.411112   -7.661057
     38          6           0       -0.952575    0.910267   -5.916819
     39          7           0        1.754493    1.187452   -0.605452
     40          1           0        1.107002    1.724457   -0.038604
     41          6           0        3.152020    1.383560   -0.238284
     42          1           0        3.663303    0.431573   -0.402599
     43          6           0        3.268177    1.700700    1.269034
     44          6           0        3.848244    2.463693   -1.102490
     45          1           0        3.922847    2.082441   -2.127892
     46          1           0        3.231444    3.369574   -1.136385
     47          8           0        4.291026    1.440939    1.884490
     48          6           0        5.235886    2.793176   -0.535054
     49          1           0        5.692831    1.841357   -0.231517
     50          1           0        5.097143    3.368574    0.390295
     51          6           0        6.191540    3.553920   -1.461841
     52          1           0        6.548563    2.911328   -2.276887
     53          1           0        5.691022    4.407018   -1.935542
     54          6           0        7.373487    4.127875   -0.679139
     55          1           0        8.194174    4.474666   -1.310831
     56          1           0        7.063093    4.938834   -0.015715
     57          7           0        7.968717    3.064361    0.252222
     58          1           0        8.741406    3.436449    0.815708
     59          1           0        8.324064    2.258879   -0.276675
     60          1           0        7.245305    2.706916    0.893621
     61          8           0        2.198444    2.309985    1.733492
     62          1           0        1.912147    2.039264    2.726611
 ---------------------------------------------------------------------

 SCF Done:  E(RB3LYP) =  -1526.17103156     A.U. after    1 cycles

 Alpha  occ. eigenvalues --  -19.22889 -19.22789 -19.21601 -19.19020 -19.18844
 Alpha  occ. eigenvalues --  -19.16207 -19.16197 -14.63342 -14.56654 -14.45055
 Alpha  occ. eigenvalues --  -14.43196 -10.40992 -10.39504 -10.37205 -10.36174
 Alpha  occ. eigenvalues --  -10.36153 -10.34414 -10.33467 -10.31482 -10.30851
 Alpha  occ. eigenvalues --  -10.30608 -10.30101 -10.29953 -10.28647 -10.26293
 Alpha  occ. eigenvalues --  -10.24838 -10.24286 -10.24165 -10.24036 -10.23978
 Alpha  occ. eigenvalues --  -10.23474  -1.17335  -1.15125  -1.13865  -1.10927
 Alpha  occ. eigenvalues --   -1.10833  -1.10156  -1.09560  -1.05472  -1.02245
 Alpha  occ. eigenvalues --   -1.00463  -0.99640  -0.94615  -0.90612  -0.89693
 Alpha  occ. eigenvalues --   -0.88437  -0.85547  -0.82362  -0.81334  -0.79733
 Alpha  occ. eigenvalues --   -0.78862  -0.76593  -0.75759  -0.74690  -0.74002
 Alpha  occ. eigenvalues --   -0.72283  -0.70695  -0.70095  -0.68270  -0.67355
 Alpha  occ. eigenvalues --   -0.66230  -0.65954  -0.65465  -0.65120  -0.63418
 Alpha  occ. eigenvalues --   -0.62725  -0.61212  -0.59601  -0.59345  -0.58321
 Alpha  occ. eigenvalues --   -0.57195  -0.57024  -0.56669  -0.56557  -0.55404
 Alpha  occ. eigenvalues --   -0.54476  -0.53537  -0.53256  -0.52476  -0.51870
 Alpha  occ. eigenvalues --   -0.51719  -0.51217  -0.50121  -0.49289  -0.49100
 Alpha  occ. eigenvalues --   -0.48880  -0.48811  -0.48182  -0.47470  -0.46967
 Alpha  occ. eigenvalues --   -0.46881  -0.46744  -0.46415  -0.46188  -0.45891
 Alpha  occ. eigenvalues --   -0.45321  -0.44684  -0.44426  -0.44035  -0.43004
 Alpha  occ. eigenvalues --   -0.41898  -0.41677  -0.40707  -0.40421  -0.38550
 Alpha  occ. eigenvalues --   -0.37975  -0.36760  -0.35693  -0.35577  -0.34740
 Alpha  occ. eigenvalues --   -0.32574  -0.32145  -0.31201  -0.30611  -0.30307
 Alpha  occ. eigenvalues --   -0.30171  -0.26813
 Alpha virt. eigenvalues --   -0.13615  -0.09061  -0.07624  -0.07322  -0.06443
 Alpha virt. eigenvalues --   -0.05924  -0.05233  -0.04745  -0.04535  -0.03870
 Alpha virt. eigenvalues --   -0.02951  -0.02390  -0.02065  -0.00894   0.00284

 Mulliken charges:
               1
     1  N   -0.756516
     2  H    0.409752
     3  H    0.404638
     4  H    0.423323
     5  C   -0.107148
     6  H    0.237262
     7  C    0.633038
     8  C   -0.287001
     9  H    0.171155
    10  H    0.155872
    11  O   -0.557511
    12  C   -0.364973
    13  H    0.186015
    14  H    0.170257
    15  C    0.610155
    16  O   -0.596229
    17  O   -0.589607
    18  N   -0.653939
    19  H    0.417247
    20  C   -0.013052
    21  H    0.168829
    22  C    0.582674
    23  C   -0.377014
    24  H    0.169168
    25  H    0.186650
    26  O   -0.506627
    27  C    0.142131
    28  C   -0.191533
    29  H    0.130413
    30  C   -0.187441
    31  H    0.152221
    32  C   -0.157060
    33  H    0.146886
    34  C   -0.196724
    35  H    0.120003
    36  O   -0.638003
    37  H    0.409313
    38  C    0.351485
    39  N   -0.595656
    40  H    0.352988
    41  C   -0.055072
    42  H    0.194607
    43  C    0.623331
    44  C   -0.270032
    45  H    0.169963
    46  H    0.165484
    47  O   -0.517147
    48  C   -0.322248
    49  H    0.148249
    50  H    0.169301
    51  C   -0.284961
    52  H    0.177366
    53  H    0.203457
    54  C   -0.208659
    55  H    0.223285
    56  H    0.230251
    57  N   -0.736758
    58  H    0.428256
    59  H    0.424791
    60  H    0.446142
    61  O   -0.631594
    62  H    0.466545
 Sum of Mulliken charges =   1.00000

 Dipole moment (field-independent basis, Debye):
    X=             22.4505    Y=              4.0294    Z=              1.3758  Tot=             22.8507
 Quadrupole moment (field-independent basis, Debye-Ang):
   XX=             72.9408   YY=           -103.2938   ZZ=           -162.4571
   XY=            122.7103   XZ=            -40.9598   YZ=            -37.0790

 Normal termination of Gaussian 16 at Tue May 24 03:12:14 2022.
