 Gaussian 16, Revision C.01,
 Gaussian 16:  ES64L-G16RevC.01  3-Jul-2019

 -------------------------------------------------------------------
 # B3LYP/6-31G* guess=read geom=check nosymm integral(ultrafinegrid)
 -------------------------------------------------------------------

 ------------------------------------------------------
 Candidate Structure: Conf:197 Charge calc in gas phase
 ------------------------------------------------------
 Structure from the checkpoint file:  "conf-197.chk"
 Charge =  1 Multiplicity = 1

                          Input orientation:
 ---------------------------------------------------------------------
 Center     Atomic      Atomic             Coordinates (Angstroms)
 Number     Number       Type             X           Y           Z
 ---------------------------------------------------------------------
      1          7           0        0.541265   -3.244588    3.139445
      2          1           0        1.521380   -3.013089    2.973024
      3          1           0       -0.114558   -2.990959    4.863776
      4          1           0        0.380925   -4.110586    2.623137
      5          6           0       -0.283993   -2.168676    2.576948
      6          1           0       -0.184031   -1.315248    3.262598
      7          6           0        0.287767   -1.663013    1.237488
      8          6           0       -1.769507   -2.580553    2.548816
      9          1           0       -1.950382   -3.272496    1.715351
     10          1           0       -2.386987   -1.691643    2.368045
     11          8           0        1.437827   -1.926572    0.905032
     12          6           0       -2.260203   -3.244877    3.856970
     13          1           0       -1.819740   -4.243160    3.953633
     14          1           0       -3.345387   -3.360025    3.811711
     15          6           0       -1.938807   -2.420913    5.108192
     16          8           0       -2.760347   -1.744235    5.680833
     17          8           0       -0.655988   -2.476275    5.521813
     18          7           0       -0.492625   -0.800097    0.512624
     19          1           0       -1.481392   -0.753620    0.717469
     20          6           0       -0.038610   -0.249080   -0.771653
     21          1           0       -0.764079    0.533498   -1.026950
     22          6           0        1.322955    0.457295   -0.581139
     23          6           0       -0.007285   -1.282554   -1.922587
     24          1           0        0.890815   -1.894991   -1.816348
     25          1           0       -0.871463   -1.942474   -1.775075
     26          8           0        2.245076    0.360427   -1.375879
     27          6           0       -0.080467   -0.662801   -3.304172
     28          6           0       -1.291125   -0.143963   -3.789238
     29          1           0       -2.185249   -0.194657   -3.169536
     30          6           0        1.037073   -0.605970   -4.143731
     31          1           0        1.988564   -0.988752   -3.788672
     32          6           0       -1.390896    0.416907   -5.058907
     33          1           0       -2.332884    0.804411   -5.433948
     34          6           0        0.953096   -0.055969   -5.422599
     35          1           0        1.833153   -0.031682   -6.063333
     36          8           0       -0.410193    1.014506   -7.125185
     37          1           0        0.409647    0.891118   -7.628587
     38          6           0       -0.262455    0.458138   -5.885170
     39          7           0        1.384021    1.280760    0.521567
     40          1           0        0.671460    1.128250    1.224527
     41          6           0        2.680117    1.731873    1.010025
     42          1           0        3.435685    1.031507    0.625541
     43          6           0        2.776444    1.671172    2.536422
     44          6           0        3.065992    3.152445    0.543988
     45          1           0        2.296988    3.849108    0.907202
     46          1           0        4.001210    3.413662    1.052562
     47          8           0        3.631915    2.238180    3.174817
     48          6           0        3.237631    3.268248   -0.976532
     49          1           0        2.276922    3.130108   -1.484934
     50          1           0        3.875727    2.456971   -1.337969
     51          6           0        3.875946    4.598252   -1.425778
     52          1           0        4.855039    4.716565   -0.940052
     53          1           0        4.049258    4.559652   -2.510129
     54          6           0        3.000813    5.802556   -1.100779
     55          1           0        2.024765    5.754146   -1.590239
     56          1           0        2.856244    5.948715   -0.028666
     57          7           0        3.658948    7.091669   -1.607240
     58          1           0        3.091715    7.924720   -1.407206
     59          1           0        3.809759    7.051768   -2.622992
     60          1           0        4.579284    7.227915   -1.170659
     61          8           0        1.810550    0.912405    3.104875
     62          1           0        1.969300    0.927124    4.069125
 ---------------------------------------------------------------------

 SCF Done:  E(RB3LYP) =  -1526.18116535     A.U. after    1 cycles

 Alpha  occ. eigenvalues --  -19.29944 -19.23989 -19.23781 -19.22009 -19.20769
 Alpha  occ. eigenvalues --  -19.20686 -19.17090 -14.65936 -14.45580 -14.44781
 Alpha  occ. eigenvalues --  -14.41470 -10.42748 -10.42178 -10.37758 -10.37520
 Alpha  occ. eigenvalues --  -10.35810 -10.35223 -10.34031 -10.32568 -10.31383
 Alpha  occ. eigenvalues --  -10.31132 -10.31062 -10.30283 -10.28420 -10.26293
 Alpha  occ. eigenvalues --  -10.26229 -10.25491 -10.25416 -10.25150 -10.25094
 Alpha  occ. eigenvalues --  -10.24734  -1.20619  -1.19781  -1.13174  -1.13034
 Alpha  occ. eigenvalues --   -1.12195  -1.12012  -1.11588  -1.05060  -1.02378
 Alpha  occ. eigenvalues --   -1.00955  -0.98293  -0.96261  -0.91633  -0.89675
 Alpha  occ. eigenvalues --   -0.86989  -0.85644  -0.84623  -0.80983  -0.80846
 Alpha  occ. eigenvalues --   -0.79884  -0.78375  -0.77524  -0.76985  -0.73291
 Alpha  occ. eigenvalues --   -0.72002  -0.70995  -0.69507  -0.68411  -0.67968
 Alpha  occ. eigenvalues --   -0.67706  -0.66327  -0.64903  -0.64346  -0.63133
 Alpha  occ. eigenvalues --   -0.62279  -0.61716  -0.60566  -0.59129  -0.58842
 Alpha  occ. eigenvalues --   -0.58026  -0.57696  -0.57030  -0.56263  -0.55646
 Alpha  occ. eigenvalues --   -0.54787  -0.54445  -0.54320  -0.52761  -0.52646
 Alpha  occ. eigenvalues --   -0.52430  -0.51613  -0.50957  -0.50672  -0.50195
 Alpha  occ. eigenvalues --   -0.49933  -0.49267  -0.48791  -0.48524  -0.48361
 Alpha  occ. eigenvalues --   -0.48115  -0.47176  -0.46978  -0.46666  -0.46290
 Alpha  occ. eigenvalues --   -0.45902  -0.45409  -0.45002  -0.44507  -0.43539
 Alpha  occ. eigenvalues --   -0.43082  -0.42513  -0.41888  -0.41695  -0.40398
 Alpha  occ. eigenvalues --   -0.39752  -0.39038  -0.37896  -0.36002  -0.35506
 Alpha  occ. eigenvalues --   -0.34740  -0.34710  -0.33961  -0.33433  -0.31350
 Alpha  occ. eigenvalues --   -0.30698  -0.27899
 Alpha virt. eigenvalues --   -0.16262  -0.09634  -0.09536  -0.09134  -0.07698
 Alpha virt. eigenvalues --   -0.07237  -0.06987  -0.06362  -0.04818  -0.03611
 Alpha virt. eigenvalues --   -0.03532  -0.02856  -0.02374  -0.00896  -0.00661

 Mulliken charges:
               1
     1  N   -0.751234
     2  H    0.342296
     3  H    0.446402
     4  H    0.324345
     5  C   -0.088695
     6  H    0.187596
     7  C    0.611367
     8  C   -0.304045
     9  H    0.160326
    10  H    0.154986
    11  O   -0.514509
    12  C   -0.363626
    13  H    0.167629
    14  H    0.185701
    15  C    0.578082
    16  O   -0.448781
    17  O   -0.596212
    18  N   -0.641539
    19  H    0.342471
    20  C   -0.051280
    21  H    0.168588
    22  C    0.631913
    23  C   -0.347350
    24  H    0.191682
    25  H    0.147937
    26  O   -0.515057
    27  C    0.156110
    28  C   -0.194669
    29  H    0.118187
    30  C   -0.173288
    31  H    0.149331
    32  C   -0.159561
    33  H    0.146050
    34  C   -0.201181
    35  H    0.122158
    36  O   -0.639851
    37  H    0.410014
    38  C    0.347877
    39  N   -0.615855
    40  H    0.352908
    41  C   -0.050022
    42  H    0.219823
    43  C    0.594413
    44  C   -0.272659
    45  H    0.132765
    46  H    0.173987
    47  O   -0.449580
    48  C   -0.271521
    49  H    0.172407
    50  H    0.201556
    51  C   -0.300283
    52  H    0.170002
    53  H    0.170677
    54  C   -0.205526
    55  H    0.229612
    56  H    0.233134
    57  N   -0.731376
    58  H    0.432522
    59  H    0.427955
    60  H    0.428977
    61  O   -0.578802
    62  H    0.434716
 Sum of Mulliken charges =   1.00000

 Dipole moment (field-independent basis, Debye):
    X=             14.6914    Y=             27.0474    Z=             -9.8179  Tot=             32.3078
 Quadrupole moment (field-independent basis, Debye-Ang):
   XX=           -128.5712   YY=             42.9903   ZZ=           -191.2318
   XY=            108.5912   XZ=            -21.2326   YZ=            -50.0906

 Normal termination of Gaussian 16 at Tue May 24 03:12:14 2022.
