 Gaussian 16, Revision C.01,
 Gaussian 16:  ES64L-G16RevC.01  3-Jul-2019

 -------------------------------------------------------------------
 # B3LYP/6-31G* guess=read geom=check nosymm integral(ultrafinegrid)
 -------------------------------------------------------------------

 ------------------------------------------------------
 Candidate Structure: Conf:474 Charge calc in gas phase
 ------------------------------------------------------
 Structure from the checkpoint file:  "conf-474.chk"
 Charge =  1 Multiplicity = 1

                          Input orientation:
 ---------------------------------------------------------------------
 Center     Atomic      Atomic             Coordinates (Angstroms)
 Number     Number       Type             X           Y           Z
 ---------------------------------------------------------------------
      1          7           0       -0.023034   -3.745239    2.557522
      2          1           0        0.733905   -3.629876    3.227196
      3          1           0       -0.564452   -4.556702    2.844237
      4          1           0        0.482187   -3.358907    0.876498
      5          6           0       -0.861608   -2.533582    2.464048
      6          1           0       -0.716925   -1.869232    3.321984
      7          6           0       -0.395400   -1.775329    1.206148
      8          6           0       -2.352973   -2.939633    2.390989
      9          1           0       -2.584432   -3.469686    3.323516
     10          1           0       -2.477283   -3.658976    1.570460
     11          8           0        0.349746   -2.498372    0.374673
     12          6           0       -3.376351   -1.800717    2.210001
     13          1           0       -4.378236   -2.235095    2.245842
     14          1           0       -3.244034   -1.328465    1.231515
     15          6           0       -3.305758   -0.748583    3.321943
     16          8           0       -4.045233   -0.760450    4.277792
     17          8           0       -2.337807    0.179705    3.190159
     18          7           0       -0.738670   -0.551254    1.034653
     19          1           0       -1.802142    0.022835    2.362923
     20          6           0       -0.335900    0.223337   -0.144135
     21          1           0       -0.827344    1.196381   -0.023126
     22          6           0        1.187055    0.503308   -0.159030
     23          6           0       -0.802767   -0.360052   -1.499921
     24          1           0       -0.298204   -1.311473   -1.673479
     25          1           0       -1.878562   -0.557072   -1.418076
     26          8           0        1.976879   -0.100050   -0.879282
     27          6           0       -0.525697    0.595059   -2.642628
     28          6           0        0.465721    0.308744   -3.591562
     29          1           0        0.999255   -0.634042   -3.532000
     30          6           0       -1.207774    1.815022   -2.750879
     31          1           0       -2.003042    2.053973   -2.049207
     32          6           0        0.790100    1.218122   -4.597896
     33          1           0        1.527833    0.971391   -5.356899
     34          6           0       -0.875117    2.752758   -3.731267
     35          1           0       -1.397307    3.706054   -3.779873
     36          8           0        0.579380    3.381644   -5.590015
     37          1           0       -0.135762    4.011114   -5.782105
     38          6           0        0.136064    2.447414   -4.637628
     39          7           0        1.560191    1.530510    0.657867
     40          1           0        0.909721    1.870127    1.359881
     41          6           0        2.941429    1.943145    0.854530
     42          1           0        3.598946    1.082630    0.687602
     43          6           0        3.081066    2.392393    2.306562
     44          6           0        3.346405    3.097064   -0.104553
     45          1           0        2.522880    3.822513   -0.099104
     46          1           0        4.229137    3.609702    0.292620
     47          8           0        2.148714    2.586997    3.053905
     48          6           0        3.626309    2.607020   -1.539820
     49          1           0        3.027348    1.716991   -1.752253
     50          1           0        4.677277    2.295864   -1.611987
     51          6           0        3.322290    3.674269   -2.605793
     52          1           0        2.239519    3.858226   -2.621458
     53          1           0        3.815010    4.625730   -2.360220
     54          6           0        3.782068    3.196919   -3.979573
     55          1           0        4.870524    3.211867   -4.075832
     56          1           0        3.417944    2.190783   -4.195439
     57          7           0        3.229324    4.079557   -5.092828
     58          1           0        3.676401    3.870279   -5.992096
     59          1           0        3.396826    5.071299   -4.891544
     60          1           0        2.193182    3.930699   -5.227753
     61          8           0        4.370102    2.574961    2.648250
     62          1           0        4.381254    2.879239    3.576526
 ---------------------------------------------------------------------

 SCF Done:  E(RB3LYP) =  -1526.19039434     A.U. after    2 cycles

 Alpha  occ. eigenvalues --  -19.32634 -19.29159 -19.26302 -19.23666 -19.21644
 Alpha  occ. eigenvalues --  -19.20441 -19.16662 -14.60993 -14.44840 -14.43034
 Alpha  occ. eigenvalues --  -14.40862 -10.41649 -10.39725 -10.37572 -10.37153
 Alpha  occ. eigenvalues --  -10.36704 -10.35454 -10.33594 -10.33203 -10.31919
 Alpha  occ. eigenvalues --  -10.31635 -10.30448 -10.30175 -10.29916 -10.29798
 Alpha  occ. eigenvalues --  -10.29655 -10.29625 -10.29445 -10.27969 -10.27600
 Alpha  occ. eigenvalues --  -10.25960  -1.20176  -1.19330  -1.16203  -1.15264
 Alpha  occ. eigenvalues --   -1.12653  -1.12301  -1.11277  -1.04655  -1.01633
 Alpha  occ. eigenvalues --   -0.99710  -0.99083  -0.96354  -0.93934  -0.89059
 Alpha  occ. eigenvalues --   -0.88260  -0.86372  -0.85800  -0.83828  -0.82371
 Alpha  occ. eigenvalues --   -0.78028  -0.77655  -0.75419  -0.74558  -0.73690
 Alpha  occ. eigenvalues --   -0.72874  -0.71599  -0.70608  -0.70311  -0.68847
 Alpha  occ. eigenvalues --   -0.67273  -0.66175  -0.65975  -0.64447  -0.64057
 Alpha  occ. eigenvalues --   -0.61680  -0.61530  -0.60830  -0.59870  -0.59243
 Alpha  occ. eigenvalues --   -0.58725  -0.58045  -0.57512  -0.56648  -0.56395
 Alpha  occ. eigenvalues --   -0.56092  -0.55406  -0.55122  -0.54844  -0.53751
 Alpha  occ. eigenvalues --   -0.53402  -0.53034  -0.52942  -0.52529  -0.51265
 Alpha  occ. eigenvalues --   -0.50734  -0.50672  -0.49888  -0.49553  -0.49027
 Alpha  occ. eigenvalues --   -0.48439  -0.48017  -0.47438  -0.47074  -0.46610
 Alpha  occ. eigenvalues --   -0.46184  -0.45639  -0.45580  -0.45222  -0.44659
 Alpha  occ. eigenvalues --   -0.44563  -0.43961  -0.43716  -0.42699  -0.41553
 Alpha  occ. eigenvalues --   -0.41240  -0.40067  -0.37677  -0.37154  -0.36391
 Alpha  occ. eigenvalues --   -0.36150  -0.35639  -0.34495  -0.34128  -0.33418
 Alpha  occ. eigenvalues --   -0.32373  -0.30292
 Alpha virt. eigenvalues --   -0.12463  -0.11250  -0.10535  -0.08735  -0.07946
 Alpha virt. eigenvalues --   -0.06564  -0.06206  -0.06094  -0.04397  -0.03397
 Alpha virt. eigenvalues --   -0.02201  -0.01311  -0.01104  -0.01013  -0.00911

 Mulliken charges:
               1
     1  N   -0.791311
     2  H    0.340802
     3  H    0.342157
     4  H    0.445823
     5  C   -0.069199
     6  H    0.193107
     7  C    0.590530
     8  C   -0.293199
     9  H    0.177800
    10  H    0.159076
    11  O   -0.596101
    12  C   -0.366487
    13  H    0.185303
    14  H    0.156392
    15  C    0.572712
    16  O   -0.445839
    17  O   -0.608590
    18  N   -0.548463
    19  H    0.443017
    20  C   -0.065245
    21  H    0.147462
    22  C    0.635413
    23  C   -0.366904
    24  H    0.198435
    25  H    0.163922
    26  O   -0.527338
    27  C    0.163785
    28  C   -0.165485
    29  H    0.171376
    30  C   -0.189717
    31  H    0.158756
    32  C   -0.182370
    33  H    0.141489
    34  C   -0.177770
    35  H    0.145809
    36  O   -0.701663
    37  H    0.436256
    38  C    0.316706
    39  N   -0.614204
    40  H    0.363679
    41  C   -0.042009
    42  H    0.203534
    43  C    0.575912
    44  C   -0.273547
    45  H    0.153138
    46  H    0.174613
    47  O   -0.447998
    48  C   -0.295175
    49  H    0.210819
    50  H    0.155384
    51  C   -0.297100
    52  H    0.171391
    53  H    0.162678
    54  C   -0.197746
    55  H    0.213091
    56  H    0.223571
    57  N   -0.770875
    58  H    0.413699
    59  H    0.406599
    60  H    0.451569
    61  O   -0.561088
    62  H    0.429617
 Sum of Mulliken charges =   1.00000

 Dipole moment (field-independent basis, Debye):
    X=             14.7322    Y=             13.1369    Z=            -19.1691  Tot=             27.5149
 Quadrupole moment (field-independent basis, Debye-Ang):
   XX=           -136.5229   YY=            -78.6779   ZZ=            -87.3212
   XY=             57.3583   XZ=            -23.0201   YZ=            -97.8509

 Normal termination of Gaussian 16 at Tue May 24 03:12:59 2022.
