 Gaussian 16, Revision C.01,
 Gaussian 16:  ES64L-G16RevC.01  3-Jul-2019

 ----------------------------------------------------------------------
 # B3LYP/6-31G* empiricaldispersion=gd3bj guess=read geom=check nosymm
 integral(ultrafinegrid)
 ----------------------------------------------------------------------

 ------------------------------------------------------
 Candidate Structure: Conf:306 Charge calc in gas phase
 ------------------------------------------------------
 Structure from the checkpoint file:  "conf-306.chk"
 Charge =  1 Multiplicity = 1

                          Input orientation:
 ---------------------------------------------------------------------
 Center     Atomic      Atomic             Coordinates (Angstroms)
 Number     Number       Type             X           Y           Z
 ---------------------------------------------------------------------
      1          7           0       -9.366840   -3.647566   -9.243257
      2          1           0      -10.029635   -3.694238  -10.019181
      3          1           0       -9.166794   -2.655871   -8.960001
      4          1           0       -8.439396   -4.039730   -9.542145
      5          6           0       -9.892310   -4.266195   -7.971514
      6          1           0      -10.971450   -4.402278   -8.067334
      7          6           0       -9.567115   -3.192586   -6.893418
      8          6           0       -9.207816   -5.618952   -7.719782
      9          1           0       -9.228104   -6.224903   -8.634769
     10          1           0       -8.166424   -5.484898   -7.420431
     11          8           0       -8.945388   -2.188144   -7.257079
     12          6           0       -9.929458   -6.389379   -6.634473
     13          8           0      -11.024529   -6.071178   -6.203645
     14          8           0       -9.242936   -7.449238   -6.218645
     15          7           0       -9.955308   -3.430644   -5.631414
     16          1           0      -10.395688   -4.330872   -5.461617
     17          6           0       -9.125988   -2.914584   -4.545279
     18          1           0       -8.956575   -1.850011   -4.721916
     19          6           0       -7.790295   -3.690793   -4.610810
     20          6           0       -9.807101   -3.126316   -3.168037
     21          1           0      -10.820466   -2.715535   -3.229102
     22          1           0       -9.264932   -2.524410   -2.431225
     23          8           0       -7.697466   -4.726874   -5.263652
     24          6           0       -9.820372   -4.577594   -2.745562
     25          6           0      -10.822246   -5.452148   -3.182577
     26          1           0      -11.673879   -5.068288   -3.737303
     27          6           0       -8.770301   -5.106079   -1.982431
     28          1           0       -7.996676   -4.443665   -1.602725
     29          6           0      -10.760555   -6.817476   -2.916920
     30          1           0      -11.547905   -7.488198   -3.245526
     31          6           0       -8.698057   -6.467195   -1.700133
     32          1           0       -7.878063   -6.857917   -1.101334
     33          8           0       -9.667335   -8.678463   -1.969354
     34          1           0       -8.928700   -8.905680   -1.383000
     35          6           0       -9.688011   -7.332673   -2.181507
     36          7           0       -6.768024   -3.177753   -3.892047
     37          1           0       -6.923748   -2.432833   -3.218933
     38          6           0       -5.559131   -3.945026   -3.661539
     39          1           0       -5.808344   -5.003774   -3.787935
     40          6           0       -5.133450   -3.671743   -2.213867
     41          6           0       -4.429343   -3.572808   -4.665582
     42          1           0       -3.555094   -4.203232   -4.465705
     43          1           0       -4.128127   -2.535931   -4.480751
     44          8           0       -5.676020   -2.772500   -1.559494
     45          6           0       -4.892818   -3.746218   -6.091019
     46          6           0       -4.927495   -5.014965   -6.681194
     47          1           0       -4.529018   -5.870956   -6.143632
     48          6           0       -5.405722   -2.659687   -6.804835
     49          1           0       -5.386683   -1.668021   -6.363754
     50          6           0       -5.497072   -5.208640   -7.937013
     51          1           0       -5.536816   -6.191157   -8.395373
     52          6           0       -5.982951   -2.835498   -8.061478
     53          1           0       -6.408236   -1.989478   -8.592165
     54          8           0       -6.721814   -4.347556   -9.817626
     55          1           0       -6.301102   -3.835784  -10.528533
     56          6           0       -6.036870   -4.113880   -8.606168
     57          7           0       -4.150745   -4.450149   -1.722516
     58          1           0       -3.702887   -5.128791   -2.324425
     59          6           0       -3.598789   -4.272843   -0.371295
     60          1           0       -4.431525   -3.952964    0.261069
     61          6           0       -2.539454   -3.150935   -0.403948
     62          6           0       -3.022425   -5.593544    0.143971
     63          1           0       -3.770193   -6.375650   -0.038706
     64          1           0       -2.127634   -5.838032   -0.437256
     65          8           0       -1.331708   -3.384732   -0.343796
     66          6           0       -2.680132   -5.539776    1.617008
     67          6           0       -1.349170   -5.537797    2.045193
     68          1           0       -0.553158   -5.548570    1.307499
     69          6           0       -3.700313   -5.492475    2.575024
     70          1           0       -4.740969   -5.500517    2.255853
     71          6           0       -1.043787   -5.506228    3.405642
     72          1           0       -0.006141   -5.506337    3.724507
     73          6           0       -3.397961   -5.447857    3.935344
     74          1           0       -4.199117   -5.411808    4.667656
     75          6           0       -2.066286   -5.460078    4.353938
     76          1           0       -1.827365   -5.429390    5.412424
     77          7           0       -3.055756   -1.911386   -0.553312
     78          1           0       -4.064970   -1.810354   -0.604686
     79          6           0       -2.217325   -0.728311   -0.757896
     80          1           0       -1.319800   -1.071026   -1.284485
     81          6           0       -1.778434   -0.153608    0.604897
     82          6           0       -2.965043    0.307948   -1.585498
     83          1           0       -2.327182    1.175337   -1.769188
     84          1           0       -3.266421   -0.121933   -2.546506
     85          1           0       -3.850683    0.663680   -1.051370
     86          8           0       -2.186686    0.940061    1.006368
     87          7           0       -0.942096   -0.948743    1.304456
     88          1           0       -0.680401   -1.846578    0.903519
     89          6           0       -0.578021   -0.662617    2.695937
     90          1           0       -1.448095   -0.177642    3.151031
     91          6           0        0.589409    0.346846    2.724140
     92          6           0       -0.225831   -1.942213    3.447087
     93          1           0       -0.941845   -2.724887    3.171253
     94          1           0        0.768145   -2.266768    3.120752
     95          8           0        1.744262    0.016916    3.012488
     96          6           0       -0.240199   -1.737328    4.973850
     97          1           0        0.239565   -0.776229    5.193328
     98          6           0       -1.671277   -1.698712    5.523980
     99          1           0       -2.175219   -2.658906    5.354398
    100          1           0       -1.653738   -1.489539    6.596845
    101          1           0       -2.276612   -0.918693    5.044886
    102          6           0        0.583120   -2.814653    5.685032
    103          1           0        0.170437   -3.814124    5.501041
    104          1           0        0.580766   -2.642110    6.765803
    105          1           0        1.622734   -2.807359    5.338274
    106          7           0        0.237332    1.609263    2.392435
    107          1           0       -0.715227    1.750619    2.057487
    108          6           0        1.233659    2.648933    2.127155
    109          1           0        2.107927    2.155077    1.685379
    110          6           0        1.712682    3.298208    3.437465
    111          6           0        0.683614    3.694474    1.168155
    112          1           0        1.470562    4.413166    0.929863
    113          1           0       -0.147964    4.240428    1.622224
    114          1           0        0.339633    3.213658    0.246742
    115          8           0        1.501198    4.483968    3.708772
    116          7           0        2.410575    2.475760    4.254636
    117          1           0        2.525610    1.501008    3.972336
    118          6           0        3.043677    2.976192    5.470919
    119          1           0        2.447879    3.834527    5.801105
    120          6           0        4.442377    3.512454    5.111086
    121          6           0        3.093400    1.912951    6.563457
    122          1           0        3.589251    2.359835    7.433889
    123          1           0        3.745521    1.092710    6.245470
    124          8           0        5.484597    2.996926    5.525223
    125          6           0        1.741265    1.379440    6.931684
    126          6           0        1.356071    0.242932    7.605373
    127          1           0        1.992863   -0.544286    7.985641
    128          7           0        0.552800    2.046795    6.678795
    129          1           0        0.453709    2.901029    6.148240
    130          6           0       -0.465469    1.294593    7.194642
    131          1           0       -1.502405    1.590562    7.115143
    132          7           0       -0.013763    0.198632    7.767707
    133          7           0        4.406025    4.561789    4.261638
    134          1           0        3.493666    4.884341    3.946071
    135          6           0        5.573932    4.981567    3.494378
    136          1           0        6.214782    4.097546    3.370111
    137          6           0        6.377701    6.036819    4.282797
    138          6           0        5.123003    5.481949    2.112502
    139          1           0        4.546906    6.401738    2.247175
    140          8           0        6.486802    7.206723    3.918063
    141          6           0        6.301876    5.747278    1.184847
    142          1           0        6.939626    6.531569    1.597294
    143          1           0        6.906228    4.838865    1.055086
    144          1           0        5.934793    6.060633    0.203049
    145          8           0        4.198820    4.548828    1.532123
    146          1           0        4.700505    3.741773    1.331381
    147          7           0        6.920106    5.548634    5.417578
    148          1           0        6.801710    4.559152    5.617572
    149          6           0        7.728421    6.380720    6.292335
    150          1           0        7.119868    7.229962    6.631780
    151          6           0        8.940010    6.900417    5.498294
    152          6           0        8.191927    5.567177    7.516881
    153          1           0        8.790027    4.733100    7.125475
    154          8           0        9.685216    6.130865    4.896433
    155          6           0        9.088565    6.418044    8.424366
    156          1           0        8.549883    7.299727    8.793636
    157          1           0        9.983938    6.766117    7.901786
    158          1           0        9.409166    5.834830    9.293988
    159          6           0        6.999299    5.007807    8.305653
    160          1           0        6.360362    5.822944    8.668487
    161          1           0        7.354085    4.448841    9.178561
    162          1           0        6.378957    4.330853    7.710281
    163          7           0        9.136031    8.237122    5.557203
    164          1           0        8.419295    8.857375    5.914468
    165          6           0       10.165855    8.882248    4.763810
    166          1           0       11.095797    8.320901    4.889495
    167          6           0       10.305630   10.302281    5.328853
    168          6           0        9.783119    8.881412    3.251422
    169          1           0        9.146115    8.007001    3.103137
    170          1           0        9.163792    9.759611    3.028526
    171          8           0       11.491881   10.892739    5.222955
    172          6           0       10.980802    8.778736    2.298595
    173          1           0       10.636838    8.388932    1.332212
    174          1           0       11.672814    8.032393    2.703489
    175          6           0       11.744309   10.099044    2.063003
    176          1           0       11.633054   10.780605    2.904893
    177          1           0       11.350475   10.623981    1.187176
    178          7           0       13.180070    9.916473    1.843653
    179          1           0       13.422916    9.467497    0.968674
    180          7           0       13.548207    9.549229    4.114989
    181          1           0       14.289585    9.356842    4.785282
    182          1           0       12.204347   10.299558    4.812809
    183          7           0       15.259562    9.151534    2.502471
    184          1           0       15.927860    9.067643    3.257582
    185          1           0       15.641175    9.662868    1.714855
    186          6           0       13.983560    9.546042    2.894874
    187          8           0        9.350109   10.866428    5.826510
    188          1           0       -9.736299   -7.844537   -5.471381
 ---------------------------------------------------------------------

 SCF Done:  E(RB3LYP) =  -4648.91275304     A.U. after    1 cycles

 Alpha  occ. eigenvalues --  -19.31370 -19.31327 -19.26600 -19.26589 -19.26191
 Alpha  occ. eigenvalues --  -19.23609 -19.22685 -19.20228 -19.18482 -19.18222
 Alpha  occ. eigenvalues --  -19.17371 -19.16800 -19.15980 -19.15847 -19.13405
 Alpha  occ. eigenvalues --  -19.12929 -19.11621 -14.57889 -14.48082 -14.47790
 Alpha  occ. eigenvalues --  -14.46775 -14.44086 -14.41871 -14.41759 -14.40258
 Alpha  occ. eigenvalues --  -14.39689 -14.39308 -14.39028 -14.38721 -14.36933
 Alpha  occ. eigenvalues --  -14.36093 -14.33884 -14.33787 -10.44829 -10.43101
 Alpha  occ. eigenvalues --  -10.40429 -10.40136 -10.39617 -10.37104 -10.36001
 Alpha  occ. eigenvalues --  -10.34939 -10.34797 -10.34740 -10.34080 -10.33891
 Alpha  occ. eigenvalues --  -10.33313 -10.33055 -10.32772 -10.32744 -10.32409
 Alpha  occ. eigenvalues --  -10.31411 -10.30667 -10.30661 -10.30345 -10.30306
 Alpha  occ. eigenvalues --  -10.30218 -10.30043 -10.29924 -10.29818 -10.29787
 Alpha  occ. eigenvalues --  -10.28746 -10.28457 -10.28334 -10.28227 -10.28099
 Alpha  occ. eigenvalues --  -10.27869 -10.27620 -10.27564 -10.27498 -10.27453
 Alpha  occ. eigenvalues --  -10.27113 -10.26509 -10.25959 -10.25949 -10.25297
 Alpha  occ. eigenvalues --  -10.24986 -10.24835 -10.24678 -10.24465 -10.24381
 Alpha  occ. eigenvalues --  -10.24326 -10.24248 -10.24108 -10.23978 -10.23555
 Alpha  occ. eigenvalues --  -10.21990 -10.21804 -10.21658 -10.21422 -10.21200
 Alpha  occ. eigenvalues --  -10.20289 -10.20250 -10.19908 -10.19696 -10.19504
 Alpha  occ. eigenvalues --  -10.19156 -10.18895  -1.22811  -1.18924  -1.18038
 Alpha  occ. eigenvalues --   -1.15685  -1.14747  -1.14660  -1.13854  -1.12435
 Alpha  occ. eigenvalues --   -1.12033  -1.09890  -1.08857  -1.08569  -1.07900
 Alpha  occ. eigenvalues --   -1.07154  -1.05698  -1.05565  -1.05156  -1.04028
 Alpha  occ. eigenvalues --   -1.03841  -1.03613  -1.03510  -1.02261  -1.00684
 Alpha  occ. eigenvalues --   -1.00651  -0.98285  -0.97168  -0.96649  -0.96642
 Alpha  occ. eigenvalues --   -0.95511  -0.94891  -0.93817  -0.93369  -0.92960
 Alpha  occ. eigenvalues --   -0.92796  -0.91880  -0.90681  -0.89558  -0.88825
 Alpha  occ. eigenvalues --   -0.88824  -0.87563  -0.85813  -0.85349  -0.84537
 Alpha  occ. eigenvalues --   -0.83970  -0.83945  -0.83868  -0.83526  -0.82437
 Alpha  occ. eigenvalues --   -0.81893  -0.81241  -0.80769  -0.80550  -0.80180
 Alpha  occ. eigenvalues --   -0.80089  -0.78311  -0.77396  -0.76813  -0.75600
 Alpha  occ. eigenvalues --   -0.75587  -0.74200  -0.74076  -0.73995  -0.73614
 Alpha  occ. eigenvalues --   -0.72788  -0.72478  -0.71604  -0.71569  -0.71029
 Alpha  occ. eigenvalues --   -0.70718  -0.70652  -0.70524  -0.70479  -0.70006
 Alpha  occ. eigenvalues --   -0.69250  -0.69111  -0.68918  -0.68809  -0.68156
 Alpha  occ. eigenvalues --   -0.67505  -0.66882  -0.66429  -0.66247  -0.65866
 Alpha  occ. eigenvalues --   -0.64904  -0.64866  -0.64407  -0.64056  -0.63862
 Alpha  occ. eigenvalues --   -0.63529  -0.63419  -0.63104  -0.62875  -0.62042
 Alpha  occ. eigenvalues --   -0.61802  -0.61660  -0.61511  -0.61383  -0.61077
 Alpha  occ. eigenvalues --   -0.61003  -0.60343  -0.60034  -0.59762  -0.59582
 Alpha  occ. eigenvalues --   -0.59281  -0.59014  -0.58870  -0.58798  -0.58700
 Alpha  occ. eigenvalues --   -0.58560  -0.58259  -0.58001  -0.57959  -0.57751
 Alpha  occ. eigenvalues --   -0.57340  -0.56885  -0.56685  -0.56436  -0.56429
 Alpha  occ. eigenvalues --   -0.56229  -0.55752  -0.55618  -0.55542  -0.55418
 Alpha  occ. eigenvalues --   -0.55186  -0.55084  -0.54870  -0.54121  -0.53877
 Alpha  occ. eigenvalues --   -0.53446  -0.53374  -0.53303  -0.53050  -0.52961
 Alpha  occ. eigenvalues --   -0.52604  -0.52395  -0.52001  -0.51822  -0.51636
 Alpha  occ. eigenvalues --   -0.51588  -0.51375  -0.51263  -0.51084  -0.50816
 Alpha  occ. eigenvalues --   -0.50530  -0.50472  -0.50378  -0.50040  -0.49615
 Alpha  occ. eigenvalues --   -0.49379  -0.49302  -0.49058  -0.49009  -0.48775
 Alpha  occ. eigenvalues --   -0.48539  -0.48484  -0.48366  -0.48024  -0.47658
 Alpha  occ. eigenvalues --   -0.47630  -0.47599  -0.47389  -0.47367  -0.47251
 Alpha  occ. eigenvalues --   -0.47028  -0.46910  -0.46772  -0.46600  -0.46361
 Alpha  occ. eigenvalues --   -0.46322  -0.46212  -0.46093  -0.45940  -0.45846
 Alpha  occ. eigenvalues --   -0.45540  -0.45529  -0.45419  -0.45285  -0.44740
 Alpha  occ. eigenvalues --   -0.44728  -0.44652  -0.44489  -0.44452  -0.44301
 Alpha  occ. eigenvalues --   -0.44112  -0.43849  -0.43744  -0.43677  -0.43567
 Alpha  occ. eigenvalues --   -0.43487  -0.43270  -0.43150  -0.42909  -0.42848
 Alpha  occ. eigenvalues --   -0.42829  -0.42773  -0.42305  -0.41970  -0.41868
 Alpha  occ. eigenvalues --   -0.41853  -0.41713  -0.41661  -0.41485  -0.41032
 Alpha  occ. eigenvalues --   -0.41002  -0.40950  -0.40786  -0.40685  -0.40555
 Alpha  occ. eigenvalues --   -0.40291  -0.40243  -0.40118  -0.39866  -0.39779
 Alpha  occ. eigenvalues --   -0.39677  -0.39641  -0.39486  -0.39213  -0.38829
 Alpha  occ. eigenvalues --   -0.38596  -0.38484  -0.38164  -0.37724  -0.37643
 Alpha  occ. eigenvalues --   -0.37061  -0.36606  -0.36436  -0.36272  -0.35927
 Alpha  occ. eigenvalues --   -0.35839  -0.35736  -0.35521  -0.35364  -0.35292
 Alpha  occ. eigenvalues --   -0.35216  -0.35040  -0.34887  -0.34375  -0.34270
 Alpha  occ. eigenvalues --   -0.34184  -0.33389  -0.33217  -0.32246  -0.31814
 Alpha  occ. eigenvalues --   -0.31555  -0.31116  -0.31070  -0.30931  -0.30597
 Alpha  occ. eigenvalues --   -0.30508  -0.30447  -0.30365  -0.30109  -0.29661
 Alpha  occ. eigenvalues --   -0.29420  -0.29396  -0.28428  -0.27984  -0.27919
 Alpha  occ. eigenvalues --   -0.27519  -0.26652  -0.26395  -0.25461  -0.24809
 Alpha  occ. eigenvalues --   -0.24711
 Alpha virt. eigenvalues --   -0.12751  -0.11635  -0.11342  -0.11049  -0.10038
 Alpha virt. eigenvalues --   -0.09204  -0.09082  -0.08361  -0.08241  -0.06949
 Alpha virt. eigenvalues --   -0.06269  -0.05639  -0.05588  -0.04310  -0.03653

 Mulliken charges:
               1
     1  N   -0.805897
     2  H    0.403087
     3  H    0.420128
     4  H    0.452499
     5  C   -0.102511
     6  H    0.233280
     7  C    0.638725
     8  C   -0.399054
     9  H    0.203916
    10  H    0.263026
    11  O   -0.534085
    12  C    0.630963
    13  O   -0.482152
    14  O   -0.544924
    15  N   -0.594272
    16  H    0.396849
    17  C   -0.087450
    18  H    0.198341
    19  C    0.660070
    20  C   -0.385536
    21  H    0.186618
    22  H    0.176086
    23  O   -0.549022
    24  C    0.153398
    25  C   -0.195797
    26  H    0.150375
    27  C   -0.195842
    28  H    0.148041
    29  C   -0.189220
    30  H    0.159913
    31  C   -0.188897
    32  H    0.131033
    33  O   -0.633772
    34  H    0.417274
    35  C    0.351635
    36  N   -0.613822
    37  H    0.360960
    38  C   -0.061941
    39  H    0.195443
    40  C    0.646980
    41  C   -0.367315
    42  H    0.158830
    43  H    0.172249
    44  O   -0.560891
    45  C    0.191658
    46  C   -0.155919
    47  H    0.142536
    48  C   -0.183308
    49  H    0.151148
    50  C   -0.148635
    51  H    0.161285
    52  C   -0.147958
    53  H    0.142324
    54  O   -0.696605
    55  H    0.435956
    56  C    0.276794
    57  N   -0.606915
    58  H    0.345486
    59  C   -0.066591
    60  H    0.193775
    61  C    0.640901
    62  C   -0.371803
    63  H    0.150053
    64  H    0.169487
    65  O   -0.538123
    66  C    0.159284
    67  C   -0.173271
    68  H    0.147289
    69  C   -0.182528
    70  H    0.116123
    71  C   -0.133798
    72  H    0.151072
    73  C   -0.129851
    74  H    0.142476
    75  C   -0.124651
    76  H    0.152911
    77  N   -0.607915
    78  H    0.370874
    79  C   -0.064124
    80  H    0.182909
    81  C    0.633055
    82  C   -0.459079
    83  H    0.180727
    84  H    0.134382
    85  H    0.176267
    86  O   -0.545471
    87  N   -0.622161
    88  H    0.376183
    89  C   -0.057739
    90  H    0.176121
    91  C    0.638682
    92  C   -0.292626
    93  H    0.146534
    94  H    0.156479
    95  O   -0.553751
    96  C   -0.073638
    97  H    0.156283
    98  C   -0.469217
    99  H    0.128997
   100  H    0.184205
   101  H    0.123475
   102  C   -0.462829
   103  H    0.126728
   104  H    0.164892
   105  H    0.144140
   106  N   -0.619695
   107  H    0.380986
   108  C   -0.051888
   109  H    0.170031
   110  C    0.636206
   111  C   -0.472869
   112  H    0.197054
   113  H    0.169331
   114  H    0.139936
   115  O   -0.556553
   116  N   -0.613531
   117  H    0.384854
   118  C   -0.104159
   119  H    0.180943
   120  C    0.646231
   121  C   -0.355495
   122  H    0.185562
   123  H    0.183778
   124  O   -0.552343
   125  C    0.338708
   126  C   -0.090396
   127  H    0.134772
   128  N   -0.612108
   129  H    0.348673
   130  C    0.202106
   131  H    0.154188
   132  N   -0.430275
   133  N   -0.610602
   134  H    0.384085
   135  C   -0.093224
   136  H    0.163959
   137  C    0.657494
   138  C    0.114350
   139  H    0.170286
   140  O   -0.547653
   141  C   -0.479691
   142  H    0.197267
   143  H    0.130681
   144  H    0.156408
   145  O   -0.630235
   146  H    0.385856
   147  N   -0.636086
   148  H    0.377433
   149  C    0.005941
   150  H    0.140932
   151  C    0.636959
   152  C   -0.114309
   153  H    0.153616
   154  O   -0.561894
   155  C   -0.457173
   156  H    0.144413
   157  H    0.166316
   158  H    0.145412
   159  C   -0.462300
   160  H    0.141292
   161  H    0.146977
   162  H    0.157517
   163  N   -0.606093
   164  H    0.351192
   165  C   -0.048328
   166  H    0.176095
   167  C    0.588816
   168  C   -0.287914
   169  H    0.188446
   170  H    0.149459
   171  O   -0.618132
   172  C   -0.276968
   173  H    0.131287
   174  H    0.169324
   175  C   -0.167161
   176  H    0.186428
   177  H    0.151248
   178  N   -0.584878
   179  H    0.324124
   180  N   -0.726319
   181  H    0.293008
   182  H    0.476070
   183  N   -0.760147
   184  H    0.332959
   185  H    0.334370
   186  C    0.669167
   187  O   -0.482836
   188  H    0.438406
 Sum of Mulliken charges =   1.00000

 Dipole moment (field-independent basis, Debye):
    X=            -34.7067    Y=            -25.1943    Z=            -41.1318  Tot=             59.4233
 Quadrupole moment (field-independent basis, Debye-Ang):
   XX=            -94.8363   YY=           -499.6791   ZZ=           -297.1233
   XY=            207.5940   XZ=            256.8651   YZ=             82.1642

 Normal termination of Gaussian 16 at Wed Aug 10 03:57:32 2022.
