 Gaussian 16, Revision C.01,
 Gaussian 16:  ES64L-G16RevC.01  3-Jul-2019

 ----------------------------------------------------------------------
 # B3LYP/6-31G* empiricaldispersion=gd3bj guess=read geom=check nosymm
 integral(ultrafinegrid)
 ----------------------------------------------------------------------

 ----------------------------------------------------
 Candidate Structure: Conf:2 Charge calc in gas phase
 ----------------------------------------------------
 Structure from the checkpoint file:  "conf-2.chk"
 Charge =  1 Multiplicity = 1

                          Input orientation:
 ---------------------------------------------------------------------
 Center     Atomic      Atomic             Coordinates (Angstroms)
 Number     Number       Type             X           Y           Z
 ---------------------------------------------------------------------
      1          7           0      -12.792855   -4.099209   -6.638959
      2          1           0      -13.220986   -3.188405   -6.454359
      3          1           0      -12.108940   -4.023525   -7.473235
      4          1           0      -13.535275   -4.774321   -6.838582
      5          6           0      -11.842168   -4.541598   -5.550917
      6          1           0      -11.882969   -3.825280   -4.729262
      7          6           0      -10.464217   -4.471369   -6.276215
      8          6           0      -12.196435   -5.941936   -5.037577
      9          1           0      -13.276948   -6.033579   -4.866091
     10          1           0      -11.915348   -6.722049   -5.753358
     11          8           0      -10.490654   -4.219331   -7.497471
     12          6           0      -11.510183   -6.203431   -3.704004
     13          8           0      -10.886175   -5.360537   -3.095209
     14          8           0      -11.705537   -7.457117   -3.296494
     15          7           0       -9.385681   -4.705470   -5.557273
     16          1           0       -9.433494   -4.934015   -4.560020
     17          6           0       -8.039387   -4.742421   -6.121014
     18          1           0       -8.075323   -5.284899   -7.070705
     19          6           0       -7.206948   -5.519485   -5.087103
     20          6           0       -7.486400   -3.311018   -6.373904
     21          1           0       -7.245665   -2.855426   -5.409589
     22          1           0       -8.298852   -2.734735   -6.829602
     23          8           0       -7.709048   -5.867568   -4.019797
     24          6           0       -6.280079   -3.296920   -7.285427
     25          6           0       -5.005687   -2.951338   -6.808358
     26          1           0       -4.884414   -2.697946   -5.760736
     27          6           0       -6.409904   -3.644380   -8.636503
     28          1           0       -7.389916   -3.899221   -9.034471
     29          6           0       -3.897108   -2.957797   -7.649163
     30          1           0       -2.913993   -2.678253   -7.286160
     31          6           0       -5.308192   -3.657396   -9.488064
     32          1           0       -5.429921   -3.926774  -10.534820
     33          8           0       -2.923852   -3.305904   -9.766478
     34          1           0       -3.153352   -3.540186  -10.679471
     35          6           0       -4.043515   -3.313064   -8.995200
     36          7           0       -5.923755   -5.768584   -5.433200
     37          1           0       -5.564155   -5.254176   -6.230826
     38          6           0       -4.955171   -6.080965   -4.395344
     39          1           0       -5.276319   -6.991854   -3.882768
     40          6           0       -4.908500   -4.926910   -3.367921
     41          6           0       -3.574245   -6.318261   -5.055851
     42          1           0       -3.302443   -5.420918   -5.624946
     43          1           0       -3.697490   -7.134090   -5.778056
     44          8           0       -5.305988   -3.791835   -3.658796
     45          6           0       -2.500426   -6.636036   -4.045220
     46          6           0       -1.535793   -5.681705   -3.695634
     47          1           0       -1.510096   -4.733066   -4.224351
     48          6           0       -2.516627   -7.845877   -3.341751
     49          1           0       -3.245213   -8.611889   -3.598500
     50          6           0       -0.628664   -5.907958   -2.668744
     51          1           0        0.097233   -5.157413   -2.379679
     52          6           0       -1.614857   -8.088934   -2.305013
     53          1           0       -1.640288   -9.036170   -1.770779
     54          8           0        0.233331   -7.280385   -0.958101
     55          1           0        0.123820   -8.158376   -0.560650
     56          6           0       -0.669289   -7.115336   -1.961363
     57          7           0       -4.397772   -5.244710   -2.162355
     58          1           0       -3.940322   -6.143263   -2.057396
     59          6           0       -4.154431   -4.249108   -1.113833
     60          1           0       -5.000113   -3.556045   -1.140510
     61          6           0       -2.864181   -3.461796   -1.427001
     62          6           0       -4.075944   -4.932241    0.254722
     63          1           0       -4.927747   -5.618753    0.329973
     64          1           0       -3.156800   -5.525244    0.296077
     65          8           0       -1.820314   -3.620343   -0.790796
     66          6           0       -4.109130   -3.938339    1.395432
     67          6           0       -2.951568   -3.619606    2.113318
     68          1           0       -2.011368   -4.084536    1.836026
     69          6           0       -5.312123   -3.309649    1.739335
     70          1           0       -6.220911   -3.554921    1.192644
     71          6           0       -2.998790   -2.699731    3.160455
     72          1           0       -2.093726   -2.461720    3.710776
     73          6           0       -5.360504   -2.383045    2.780285
     74          1           0       -6.301929   -1.905613    3.037284
     75          6           0       -4.202090   -2.078264    3.496594
     76          1           0       -4.234656   -1.361482    4.311009
     77          7           0       -2.974893   -2.612348   -2.471248
     78          1           0       -3.865489   -2.577891   -2.960311
     79          6           0       -1.831077   -1.890847   -3.027430
     80          1           0       -0.953017   -2.529847   -2.875205
     81          6           0       -1.582068   -0.576338   -2.255912
     82          6           0       -2.050414   -1.631618   -4.511850
     83          1           0       -1.192178   -1.106659   -4.935574
     84          1           0       -2.189403   -2.579711   -5.041985
     85          1           0       -2.928903   -0.998572   -4.670518
     86          8           0       -1.612171    0.521494   -2.815173
     87          7           0       -1.343534   -0.742729   -0.936179
     88          1           0       -1.270391   -1.685983   -0.561053
     89          6           0       -1.156022    0.410116   -0.060905
     90          1           0       -1.793407    1.200820   -0.462754
     91          6           0        0.302667    0.883705   -0.141365
     92          6           0       -1.563589    0.100548    1.376814
     93          1           0       -2.597646   -0.266993    1.364037
     94          1           0       -0.935473   -0.715779    1.753213
     95          8           0        1.173328    0.480512    0.633706
     96          6           0       -1.447823    1.308229    2.328123
     97          1           0       -0.389152    1.572866    2.409758
     98          6           0       -2.188691    2.546988    1.806939
     99          1           0       -3.232057    2.313190    1.553481
    100          1           0       -2.197528    3.330834    2.571781
    101          1           0       -1.695444    2.971779    0.927306
    102          6           0       -1.943606    0.920219    3.725074
    103          1           0       -3.022387    0.718939    3.715498
    104          1           0       -1.750017    1.723606    4.442897
    105          1           0       -1.437876    0.021204    4.096375
    106          7           0        0.553243    1.777032   -1.122045
    107          1           0       -0.194002    2.003164   -1.767612
    108          6           0        1.798450    2.515825   -1.149461
    109          1           0        2.631647    1.816339   -1.289736
    110          6           0        1.972854    3.240554    0.203993
    111          6           0        1.774058    3.543735   -2.281972
    112          1           0        2.719888    4.092178   -2.318388
    113          1           0        0.965641    4.263308   -2.116073
    114          1           0        1.622189    3.051506   -3.248213
    115          8           0        1.026985    3.740962    0.797207
    116          7           0        3.256894    3.267328    0.653466
    117          1           0        4.008310    3.026634    0.015753
    118          6           0        3.675826    4.081300    1.776890
    119          1           0        2.803303    4.640215    2.124144
    120          6           0        4.792868    5.010274    1.296724
    121          6           0        4.240236    3.209524    2.934345
    122          1           0        4.700458    3.862121    3.684739
    123          1           0        5.054178    2.601939    2.513097
    124          8           0        5.481786    4.724291    0.324386
    125          6           0        3.228206    2.356441    3.620622
    126          6           0        2.848175    2.300500    4.944282
    127          1           0        3.220828    2.907255    5.759605
    128          7           0        2.484552    1.369163    3.000626
    129          1           0        2.401919    1.178114    2.006508
    130          6           0        1.701977    0.792258    3.956787
    131          1           0        1.017664   -0.009942    3.721035
    132          7           0        1.898057    1.322847    5.148504
    133          7           0        4.979335    6.129826    2.066510
    134          1           0        4.531520    6.108634    2.980800
    135          6           0        6.301532    6.749952    2.148826
    136          1           0        6.877661    6.406644    1.286531
    137          6           0        6.918046    6.286612    3.475271
    138          6           0        6.156118    8.288779    2.082233
    139          1           0        5.626401    8.608622    2.996439
    140          8           0        6.188301    6.044278    4.441463
    141          6           0        7.494960    9.006701    1.993378
    142          1           0        8.110615    8.834027    2.880308
    143          1           0        8.048045    8.667014    1.110544
    144          1           0        7.323485   10.081916    1.890144
    145          8           0        5.411004    8.638941    0.928971
    146          1           0        4.646720    8.037126    0.909644
    147          7           0        8.258059    6.169052    3.491276
    148          1           0        8.819886    6.497834    2.711757
    149          6           0        9.027024    5.901177    4.696856
    150          1           0        8.383316    6.113714    5.556198
    151          6           0       10.217063    6.871719    4.638862
    152          6           0        9.491183    4.420088    4.765972
    153          1           0       10.184700    4.267295    3.926929
    154          8           0       10.669891    7.227935    3.544216
    155          6           0       10.232519    4.123034    6.075881
    156          1           0        9.585974    4.315498    6.942057
    157          1           0       11.137712    4.724574    6.191789
    158          1           0       10.523594    3.068036    6.112540
    159          6           0        8.299131    3.470143    4.593553
    160          1           0        7.550902    3.633527    5.376798
    161          1           0        8.635647    2.429264    4.652177
    162          1           0        7.808194    3.611818    3.626654
    163          7           0       10.710093    7.276962    5.818831
    164          1           0       10.319527    6.982203    6.710177
    165          6           0       11.894290    8.111323    5.963779
    166          1           0       12.658000    7.780476    5.254521
    167          6           0       12.386807    7.908831    7.417533
    168          6           0       11.512488    9.584556    5.650150
    169          1           0       10.934184    9.539725    4.723376
    170          1           0       10.828266    9.932427    6.435708
    171          8           0       13.627544    8.146691    7.636722
    172          6           0       12.663524   10.595418    5.445197
    173          1           0       12.423834   11.245294    4.595895
    174          1           0       13.588046   10.071472    5.171603
    175          6           0       12.951796   11.523398    6.634610
    176          1           0       12.025536   12.022701    6.943913
    177          1           0       13.670256   12.297858    6.338311
    178          7           0       13.490364   10.747252    7.750365
    179          1           0       13.820643    9.789594    7.495875
    180          7           0       12.405403   11.879772    9.483966
    181          1           0       12.227694   11.945695   10.475466
    182          1           0       12.522093   12.760729    9.005488
    183          7           0       13.328055    9.746760    9.805526
    184          1           0       12.863763    9.685251   10.700391
    185          1           0       13.493237    8.856821    9.284450
    186          6           0       13.070398   10.794454    9.011525
    187          8           0       11.535693    7.598682    8.268205
    188          1           0      -11.245006   -7.571814   -2.441359
 ---------------------------------------------------------------------

 SCF Done:  E(RB3LYP) =  -4648.89958512     A.U. after    1 cycles

 Alpha  occ. eigenvalues --  -19.33110 -19.27955 -19.27934 -19.25349 -19.24036
 Alpha  occ. eigenvalues --  -19.21924 -19.20486 -19.18273 -19.16335 -19.15876
 Alpha  occ. eigenvalues --  -19.15584 -19.15308 -19.14277 -19.14260 -19.13224
 Alpha  occ. eigenvalues --  -19.11288 -19.10726 -14.60857 -14.49734 -14.45004
 Alpha  occ. eigenvalues --  -14.44328 -14.43937 -14.42064 -14.40702 -14.40591
 Alpha  occ. eigenvalues --  -14.39845 -14.39133 -14.39033 -14.38811 -14.38353
 Alpha  occ. eigenvalues --  -14.37806 -14.37053 -14.30752 -10.46623 -10.44367
 Alpha  occ. eigenvalues --  -10.42202 -10.38749 -10.38379 -10.37210 -10.36994
 Alpha  occ. eigenvalues --  -10.35034 -10.34525 -10.33145 -10.32937 -10.32227
 Alpha  occ. eigenvalues --  -10.32159 -10.31842 -10.31685 -10.31447 -10.31256
 Alpha  occ. eigenvalues --  -10.30309 -10.30244 -10.29150 -10.28795 -10.28753
 Alpha  occ. eigenvalues --  -10.27935 -10.27673 -10.27549 -10.27495 -10.27041
 Alpha  occ. eigenvalues --  -10.26953 -10.26815 -10.26446 -10.26382 -10.26297
 Alpha  occ. eigenvalues --  -10.26253 -10.26172 -10.26109 -10.26073 -10.25885
 Alpha  occ. eigenvalues --  -10.25425 -10.25170 -10.25032 -10.24936 -10.24217
 Alpha  occ. eigenvalues --  -10.24164 -10.23683 -10.23340 -10.23302 -10.23180
 Alpha  occ. eigenvalues --  -10.22839 -10.22779 -10.22771 -10.22704 -10.22418
 Alpha  occ. eigenvalues --  -10.22140 -10.21826 -10.21326 -10.21252 -10.20950
 Alpha  occ. eigenvalues --  -10.20269 -10.19609 -10.19381 -10.18969 -10.18839
 Alpha  occ. eigenvalues --  -10.18678 -10.18674  -1.24486  -1.20405  -1.15716
 Alpha  occ. eigenvalues --   -1.14805  -1.14069  -1.13574  -1.12286  -1.12069
 Alpha  occ. eigenvalues --   -1.10060  -1.08082  -1.07685  -1.07374  -1.07173
 Alpha  occ. eigenvalues --   -1.06675  -1.06228  -1.05819  -1.05096  -1.04211
 Alpha  occ. eigenvalues --   -1.03809  -1.02230  -1.00886  -1.00528  -0.98780
 Alpha  occ. eigenvalues --   -0.97090  -0.96534  -0.95804  -0.95789  -0.95574
 Alpha  occ. eigenvalues --   -0.95535  -0.95499  -0.95008  -0.94947  -0.93769
 Alpha  occ. eigenvalues --   -0.93467  -0.92727  -0.90046  -0.89448  -0.87028
 Alpha  occ. eigenvalues --   -0.86210  -0.85478  -0.85016  -0.83913  -0.83143
 Alpha  occ. eigenvalues --   -0.82869  -0.82632  -0.82553  -0.82458  -0.82099
 Alpha  occ. eigenvalues --   -0.81783  -0.80400  -0.80325  -0.79313  -0.78481
 Alpha  occ. eigenvalues --   -0.78206  -0.77216  -0.77209  -0.76755  -0.76126
 Alpha  occ. eigenvalues --   -0.75093  -0.75093  -0.73914  -0.73682  -0.72563
 Alpha  occ. eigenvalues --   -0.72221  -0.71955  -0.71337  -0.70321  -0.70185
 Alpha  occ. eigenvalues --   -0.70059  -0.69979  -0.69676  -0.69512  -0.69337
 Alpha  occ. eigenvalues --   -0.69093  -0.68628  -0.67869  -0.67461  -0.66990
 Alpha  occ. eigenvalues --   -0.66705  -0.65733  -0.65704  -0.65247  -0.64930
 Alpha  occ. eigenvalues --   -0.64642  -0.64506  -0.63351  -0.63219  -0.62846
 Alpha  occ. eigenvalues --   -0.62373  -0.62298  -0.62259  -0.62111  -0.61594
 Alpha  occ. eigenvalues --   -0.61477  -0.61240  -0.61207  -0.61132  -0.60843
 Alpha  occ. eigenvalues --   -0.60631  -0.60562  -0.60247  -0.59842  -0.59706
 Alpha  occ. eigenvalues --   -0.59465  -0.59006  -0.58830  -0.58315  -0.57926
 Alpha  occ. eigenvalues --   -0.57903  -0.57758  -0.57186  -0.56795  -0.56389
 Alpha  occ. eigenvalues --   -0.56079  -0.55654  -0.55613  -0.55292  -0.55066
 Alpha  occ. eigenvalues --   -0.54772  -0.54534  -0.54493  -0.54067  -0.53922
 Alpha  occ. eigenvalues --   -0.53830  -0.53691  -0.53603  -0.53218  -0.53032
 Alpha  occ. eigenvalues --   -0.52824  -0.52611  -0.52443  -0.52058  -0.51824
 Alpha  occ. eigenvalues --   -0.51726  -0.51672  -0.51351  -0.51218  -0.50842
 Alpha  occ. eigenvalues --   -0.50691  -0.50421  -0.50274  -0.50183  -0.49930
 Alpha  occ. eigenvalues --   -0.49763  -0.49555  -0.49467  -0.49443  -0.49068
 Alpha  occ. eigenvalues --   -0.48650  -0.48355  -0.48324  -0.47990  -0.47791
 Alpha  occ. eigenvalues --   -0.47459  -0.47391  -0.47255  -0.47068  -0.46981
 Alpha  occ. eigenvalues --   -0.46857  -0.46752  -0.46690  -0.46574  -0.46381
 Alpha  occ. eigenvalues --   -0.46174  -0.46114  -0.45927  -0.45667  -0.45436
 Alpha  occ. eigenvalues --   -0.45332  -0.45239  -0.45160  -0.44836  -0.44779
 Alpha  occ. eigenvalues --   -0.44650  -0.44581  -0.44121  -0.44015  -0.43866
 Alpha  occ. eigenvalues --   -0.43765  -0.43617  -0.43570  -0.43444  -0.43216
 Alpha  occ. eigenvalues --   -0.43072  -0.42875  -0.42751  -0.42620  -0.42452
 Alpha  occ. eigenvalues --   -0.42392  -0.42182  -0.42167  -0.42019  -0.41811
 Alpha  occ. eigenvalues --   -0.41582  -0.41564  -0.41493  -0.41269  -0.41131
 Alpha  occ. eigenvalues --   -0.40916  -0.40867  -0.40580  -0.40540  -0.40469
 Alpha  occ. eigenvalues --   -0.40393  -0.40337  -0.40192  -0.40165  -0.39918
 Alpha  occ. eigenvalues --   -0.39718  -0.39633  -0.39462  -0.39419  -0.39396
 Alpha  occ. eigenvalues --   -0.39378  -0.39052  -0.38939  -0.38521  -0.38264
 Alpha  occ. eigenvalues --   -0.38163  -0.38016  -0.38006  -0.37681  -0.37426
 Alpha  occ. eigenvalues --   -0.36682  -0.36533  -0.35655  -0.35500  -0.35393
 Alpha  occ. eigenvalues --   -0.35373  -0.34975  -0.34763  -0.34611  -0.34352
 Alpha  occ. eigenvalues --   -0.34287  -0.34034  -0.33947  -0.33478  -0.33153
 Alpha  occ. eigenvalues --   -0.32243  -0.31471  -0.31242  -0.31055  -0.30642
 Alpha  occ. eigenvalues --   -0.29918  -0.29801  -0.29688  -0.29252  -0.29120
 Alpha  occ. eigenvalues --   -0.29006  -0.28635  -0.28614  -0.28497  -0.28264
 Alpha  occ. eigenvalues --   -0.27733  -0.27694  -0.27545  -0.27222  -0.27125
 Alpha  occ. eigenvalues --   -0.26994  -0.26648  -0.26318  -0.25250  -0.24860
 Alpha  occ. eigenvalues --   -0.22067
 Alpha virt. eigenvalues --   -0.13477  -0.12769  -0.12151  -0.08927  -0.07949
 Alpha virt. eigenvalues --   -0.07566  -0.07457  -0.07129  -0.06725  -0.05997
 Alpha virt. eigenvalues --   -0.05021  -0.04394  -0.04344  -0.03849  -0.03811

 Mulliken charges:
               1
     1  N   -0.770618
     2  H    0.420355
     3  H    0.440781
     4  H    0.413113
     5  C   -0.094884
     6  H    0.246477
     7  C    0.637935
     8  C   -0.397943
     9  H    0.215143
    10  H    0.229282
    11  O   -0.553206
    12  C    0.617834
    13  O   -0.443563
    14  O   -0.541840
    15  N   -0.616762
    16  H    0.417922
    17  C   -0.078992
    18  H    0.195771
    19  C    0.638954
    20  C   -0.351846
    21  H    0.193655
    22  H    0.172182
    23  O   -0.539527
    24  C    0.100385
    25  C   -0.219748
    26  H    0.176031
    27  C   -0.186741
    28  H    0.140514
    29  C   -0.167875
    30  H    0.164906
    31  C   -0.190147
    32  H    0.137052
    33  O   -0.627055
    34  H    0.416939
    35  C    0.359031
    36  N   -0.608052
    37  H    0.362208
    38  C   -0.057261
    39  H    0.183213
    40  C    0.651353
    41  C   -0.387907
    42  H    0.166002
    43  H    0.175477
    44  O   -0.569207
    45  C    0.141331
    46  C   -0.195597
    47  H    0.143958
    48  C   -0.219371
    49  H    0.134500
    50  C   -0.139880
    51  H    0.168463
    52  C   -0.194514
    53  H    0.136178
    54  O   -0.625176
    55  H    0.414779
    56  C    0.351528
    57  N   -0.596320
    58  H    0.357257
    59  C   -0.064139
    60  H    0.186648
    61  C    0.653385
    62  C   -0.372914
    63  H    0.153319
    64  H    0.170972
    65  O   -0.548673
    66  C    0.153872
    67  C   -0.172885
    68  H    0.151470
    69  C   -0.181921
    70  H    0.115118
    71  C   -0.132273
    72  H    0.147589
    73  C   -0.131007
    74  H    0.131496
    75  C   -0.130315
    76  H    0.146595
    77  N   -0.613798
    78  H    0.373220
    79  C   -0.066670
    80  H    0.182307
    81  C    0.632786
    82  C   -0.479284
    83  H    0.183951
    84  H    0.145281
    85  H    0.171050
    86  O   -0.545467
    87  N   -0.624887
    88  H    0.376738
    89  C   -0.058671
    90  H    0.172053
    91  C    0.661018
    92  C   -0.281495
    93  H    0.142449
    94  H    0.145417
    95  O   -0.562678
    96  C   -0.093229
    97  H    0.175688
    98  C   -0.455412
    99  H    0.120949
   100  H    0.150104
   101  H    0.161486
   102  C   -0.451274
   103  H    0.127177
   104  H    0.160802
   105  H    0.138928
   106  N   -0.597083
   107  H    0.360649
   108  C   -0.020733
   109  H    0.157014
   110  C    0.613527
   111  C   -0.486672
   112  H    0.174504
   113  H    0.175659
   114  H    0.165029
   115  O   -0.519789
   116  N   -0.599901
   117  H    0.344572
   118  C   -0.082485
   119  H    0.194064
   120  C    0.609195
   121  C   -0.378312
   122  H    0.187921
   123  H    0.159508
   124  O   -0.515954
   125  C    0.339793
   126  C   -0.090590
   127  H    0.127049
   128  N   -0.619682
   129  H    0.382568
   130  C    0.197828
   131  H    0.145981
   132  N   -0.441003
   133  N   -0.623147
   134  H    0.351703
   135  C   -0.105707
   136  H    0.186519
   137  C    0.628312
   138  C    0.157412
   139  H    0.121128
   140  O   -0.553791
   141  C   -0.469691
   142  H    0.157842
   143  H    0.157795
   144  H    0.164154
   145  O   -0.628676
   146  H    0.402128
   147  N   -0.602041
   148  H    0.356436
   149  C   -0.054156
   150  H    0.171161
   151  C    0.624283
   152  C   -0.069811
   153  H    0.137162
   154  O   -0.566558
   155  C   -0.465198
   156  H    0.146228
   157  H    0.165242
   158  H    0.149481
   159  C   -0.447756
   160  H    0.160472
   161  H    0.142657
   162  H    0.147621
   163  N   -0.611306
   164  H    0.355066
   165  C   -0.024718
   166  H    0.166783
   167  C    0.584192
   168  C   -0.277611
   169  H    0.177164
   170  H    0.138195
   171  O   -0.648253
   172  C   -0.301898
   173  H    0.156337
   174  H    0.171877
   175  C   -0.150283
   176  H    0.154969
   177  H    0.163152
   178  N   -0.599753
   179  H    0.406431
   180  N   -0.753291
   181  H    0.359472
   182  H    0.364914
   183  N   -0.752528
   184  H    0.344364
   185  H    0.410184
   186  C    0.750047
   187  O   -0.564659
   188  H    0.445939
 Sum of Mulliken charges =   1.00000

 Dipole moment (field-independent basis, Debye):
    X=            -45.3875    Y=            -16.8352    Z=            -25.1607  Tot=             54.5574
 Quadrupole moment (field-independent basis, Debye-Ang):
   XX=            163.7611   YY=           -197.9376   ZZ=           -279.7164
   XY=            422.6191   XZ=            418.4166   YZ=            287.5311

 Normal termination of Gaussian 16 at Wed Aug 10 03:57:27 2022.
