 Gaussian 16, Revision C.01,
 Gaussian 16:  ES64L-G16RevC.01  3-Jul-2019

 ----------------------------------------------------------------------
 # B3LYP/6-31G* empiricaldispersion=gd3bj guess=read geom=check nosymm
 integral(ultrafinegrid)
 ----------------------------------------------------------------------

 -----------------------------------------------------
 Candidate Structure: Conf:95 Charge calc in gas phase
 -----------------------------------------------------
 Structure from the checkpoint file:  "conf-95.chk"
 Charge =  1 Multiplicity = 1

                          Input orientation:
 ---------------------------------------------------------------------
 Center     Atomic      Atomic             Coordinates (Angstroms)
 Number     Number       Type             X           Y           Z
 ---------------------------------------------------------------------
      1          7           0      -10.482038   -2.665726   -1.868762
      2          1           0      -10.426140   -2.220993   -2.813094
      3          1           0      -10.398021   -3.695549   -2.034656
      4          1           0      -11.359212   -2.412358   -1.408429
      5          6           0       -9.243099   -2.327263   -1.085359
      6          1           0       -8.965596   -1.298625   -1.317178
      7          6           0       -8.215774   -3.327860   -1.679882
      8          6           0       -9.475684   -2.512134    0.413735
      9          1           0      -10.406984   -2.028134    0.737535
     10          1           0       -9.555300   -3.571498    0.681215
     11          8           0       -8.660531   -4.385970   -2.145662
     12          6           0       -8.338892   -1.872400    1.193228
     13          8           0       -7.473777   -1.189230    0.688687
     14          8           0       -8.431387   -2.140352    2.499069
     15          7           0       -6.952824   -2.927759   -1.696611
     16          1           0       -6.678134   -2.038715   -1.269339
     17          6           0       -5.971044   -3.429936   -2.645408
     18          1           0       -5.747927   -4.482215   -2.444240
     19          6           0       -4.722173   -2.568914   -2.395928
     20          6           0       -6.462496   -3.285423   -4.137759
     21          1           0       -6.845334   -4.252803   -4.470369
     22          1           0       -5.593236   -3.031172   -4.751761
     23          8           0       -4.782004   -1.585131   -1.659525
     24          6           0       -7.532311   -2.233887   -4.322858
     25          6           0       -8.829421   -2.601702   -4.692109
     26          1           0       -9.045752   -3.645420   -4.902203
     27          6           0       -7.274966   -0.875214   -4.075323
     28          1           0       -6.269054   -0.551049   -3.829693
     29          6           0       -9.865065   -1.660729   -4.778111
     30          1           0      -10.852179   -1.936030   -5.140994
     31          6           0       -8.291586    0.072581   -4.149930
     32          1           0       -8.064255    1.113558   -3.940323
     33          8           0      -10.629901    0.566275   -4.575405
     34          1           0      -10.291803    1.469746   -4.468434
     35          6           0       -9.592122   -0.313344   -4.497972
     36          7           0       -3.610770   -2.924507   -3.067389
     37          1           0       -3.653542   -3.709603   -3.703476
     38          6           0       -2.565153   -1.939040   -3.301823
     39          1           0       -2.103530   -1.670808   -2.349461
     40          6           0       -3.176184   -0.682266   -3.953196
     41          6           0       -1.503370   -2.531640   -4.245688
     42          1           0       -0.791159   -1.734095   -4.472316
     43          1           0       -1.992011   -2.788442   -5.194264
     44          8           0       -4.146531   -0.758410   -4.709921
     45          6           0       -0.804481   -3.738175   -3.666422
     46          6           0       -0.023180   -3.626399   -2.504803
     47          1           0        0.084580   -2.662748   -2.016849
     48          6           0       -0.925090   -4.996289   -4.260229
     49          1           0       -1.511569   -5.107740   -5.169946
     50          6           0        0.614882   -4.731255   -1.957516
     51          1           0        1.218147   -4.644479   -1.059640
     52          6           0       -0.288648   -6.116779   -3.722794
     53          1           0       -0.390115   -7.086906   -4.205036
     54          8           0        1.136605   -7.034535   -1.986402
     55          1           0        0.982828   -7.835776   -2.510747
     56          6           0        0.485044   -5.985611   -2.567641
     57          7           0       -2.518601    0.454606   -3.652063
     58          1           0       -1.677413    0.387213   -3.059736
     59          6           0       -2.768677    1.698641   -4.341748
     60          1           0       -3.527367    1.488322   -5.103725
     61          6           0       -1.460377    2.118330   -5.053462
     62          6           0       -3.301200    2.788945   -3.375283
     63          1           0       -2.532864    2.974332   -2.619579
     64          1           0       -3.436784    3.728440   -3.922247
     65          8           0       -0.528126    1.325639   -5.202265
     66          6           0       -4.610800    2.458967   -2.696939
     67          6           0       -5.783661    3.132318   -3.063744
     68          1           0       -5.748584    3.872586   -3.859851
     69          6           0       -4.674875    1.522633   -1.658277
     70          1           0       -3.782126    0.986804   -1.359875
     71          6           0       -6.986461    2.891129   -2.398998
     72          1           0       -7.876509    3.451607   -2.675889
     73          6           0       -5.879460    1.261287   -1.005577
     74          1           0       -5.907989    0.524135   -0.211997
     75          6           0       -7.036827    1.949930   -1.368094
     76          1           0       -7.969111    1.762642   -0.840750
     77          7           0       -1.388857    3.389490   -5.518518
     78          1           0       -2.115009    4.052218   -5.288786
     79          6           0       -0.156791    3.934631   -6.102930
     80          1           0        0.342920    3.095372   -6.592345
     81          6           0        0.725896    4.461876   -4.950036
     82          6           0       -0.481269    5.035324   -7.102065
     83          1           0        0.437538    5.401981   -7.567186
     84          1           0       -1.145569    4.655170   -7.883456
     85          1           0       -0.950262    5.886066   -6.599143
     86          8           0        0.768564    5.653676   -4.662667
     87          7           0        1.392951    3.492188   -4.265768
     88          1           0        1.223395    2.520409   -4.503457
     89          6           0        2.086218    3.788807   -3.028734
     90          1           0        2.243725    4.869600   -3.020473
     91          6           0        3.415307    3.048055   -2.958782
     92          6           0        1.278977    3.349016   -1.779585
     93          1           0        1.129580    2.267788   -1.846730
     94          1           0        1.890772    3.527535   -0.882979
     95          8           0        3.545048    1.890253   -3.366856
     96          6           0       -0.078728    4.045386   -1.607264
     97          1           0       -0.602382    3.984798   -2.571106
     98          6           0       -0.913654    3.295478   -0.559838
     99          1           0       -0.421252    3.268755    0.418843
    100          1           0       -1.891387    3.774091   -0.425274
    101          1           0       -1.081865    2.256881   -0.866704
    102          6           0        0.074142    5.528444   -1.252812
    103          1           0        0.644854    5.648159   -0.322357
    104          1           0       -0.907205    5.990807   -1.097768
    105          1           0        0.575370    6.084325   -2.051067
    106          7           0        4.401117    3.713790   -2.297270
    107          1           0        4.168582    4.612022   -1.890908
    108          6           0        5.541329    3.010278   -1.693553
    109          1           0        5.852519    2.246725   -2.409981
    110          6           0        4.988314    2.345881   -0.419858
    111          6           0        6.679184    3.972250   -1.392766
    112          1           0        7.533694    3.425594   -0.984648
    113          1           0        6.371823    4.708322   -0.644176
    114          1           0        6.991162    4.486069   -2.306086
    115          8           0        5.023172    2.920663    0.672082
    116          7           0        4.377521    1.159720   -0.628860
    117          1           0        4.223357    0.904808   -1.598472
    118          6           0        3.577967    0.513802    0.393810
    119          1           0        2.731075    1.146005    0.682656
    120          6           0        4.390970    0.207223    1.651178
    121          6           0        2.976880   -0.814076   -0.132240
    122          1           0        2.568558   -1.355366    0.725559
    123          1           0        3.781115   -1.432358   -0.549140
    124          8           0        5.613291    0.051702    1.672699
    125          6           0        1.892350   -0.580174   -1.129864
    126          6           0        0.567568   -0.240837   -0.966397
    127          1           0        0.036816   -0.118273   -0.033113
    128          7           0        2.096653   -0.553904   -2.499375
    129          1           0        2.978396   -0.668469   -2.978512
    130          6           0        0.934762   -0.192506   -3.098681
    131          1           0        0.821758   -0.059240   -4.162358
    132          7           0       -0.017733   -0.004231   -2.197011
    133          7           0        3.600659    0.037049    2.733810
    134          1           0        2.589982    0.188616    2.626181
    135          6           0        4.065795   -0.780771    3.843442
    136          1           0        4.864767   -1.423422    3.451275
    137          6           0        2.879704   -1.715810    4.157084
    138          6           0        4.692781    0.087692    4.952462
    139          1           0        3.901485    0.648060    5.470797
    140          8           0        2.360201   -2.321572    3.221934
    141          6           0        5.507314   -0.733554    5.949720
    142          1           0        4.900928   -1.487959    6.463181
    143          1           0        6.318133   -1.253602    5.427910
    144          1           0        5.953780   -0.075206    6.699686
    145          8           0        5.529532    1.086676    4.352232
    146          1           0        5.870569    0.736894    3.498374
    147          7           0        2.400302   -1.789098    5.425650
    148          1           0        2.768320   -1.153108    6.120681
    149          6           0        1.038705   -2.300325    5.667496
    150          1           0        0.801504   -2.906159    4.789456
    151          6           0        0.137462   -1.039010    5.709036
    152          6           0        0.944095   -3.157437    6.934394
    153          1           0        1.096127   -2.494856    7.796348
    154          8           0       -0.371841   -0.640472    6.754484
    155          6           0       -0.460787   -3.764019    7.048733
    156          1           0       -0.672174   -4.415922    6.190952
    157          1           0       -1.224290   -2.984480    7.095685
    158          1           0       -0.538661   -4.373830    7.955055
    159          6           0        2.014760   -4.254215    6.939732
    160          1           0        1.897064   -4.919745    6.075495
    161          1           0        1.929949   -4.863600    7.845746
    162          1           0        3.026751   -3.839485    6.902335
    163          7           0        0.098124   -0.355569    4.536030
    164          1           0        0.534302   -0.748086    3.704864
    165          6           0       -0.121900    1.084684    4.433406
    166          1           0       -1.178577    1.327767    4.591055
    167          6           0        0.304676    1.536032    3.007029
    168          6           0        0.737908    1.836838    5.484025
    169          1           0        0.685627    1.271614    6.414555
    170          1           0        1.781638    1.796351    5.143762
    171          8           0        0.109862    2.746076    2.713384
    172          6           0        0.316630    3.292659    5.766446
    173          1           0       -0.078835    3.383450    6.784565
    174          1           0       -0.488138    3.592992    5.087447
    175          6           0        1.473331    4.284639    5.606935
    176          1           0        2.326873    3.982796    6.221642
    177          1           0        1.178451    5.288111    5.930216
    178          7           0        1.887239    4.352514    4.201258
    179          1           0        1.086802    4.303235    3.570186
    180          7           0        4.100034    3.560959    4.359218
    181          1           0        4.704593    2.748312    4.175442
    182          1           0        4.207050    4.020970    5.250192
    183          7           0        2.867150    3.279885    2.422469
    184          1           0        3.702783    3.031098    1.885785
    185          1           0        1.928046    3.085313    2.063301
    186          6           0        2.953485    3.715019    3.675790
    187          8           0        0.889665    0.681009    2.280794
    188          1           0       -7.685867   -1.696951    2.949729
 ---------------------------------------------------------------------

 SCF Done:  E(RB3LYP) =  -4648.97591854     A.U. after    3 cycles

 Alpha  occ. eigenvalues --  -19.31279 -19.27028 -19.26143 -19.24277 -19.22960
 Alpha  occ. eigenvalues --  -19.20912 -19.20333 -19.19156 -19.19080 -19.18866
 Alpha  occ. eigenvalues --  -19.17864 -19.17689 -19.17432 -19.16961 -19.15976
 Alpha  occ. eigenvalues --  -19.15202 -19.14825 -14.57691 -14.46476 -14.45350
 Alpha  occ. eigenvalues --  -14.43770 -14.43510 -14.43415 -14.42927 -14.42742
 Alpha  occ. eigenvalues --  -14.42626 -14.42592 -14.41205 -14.41121 -14.40720
 Alpha  occ. eigenvalues --  -14.40595 -14.39192 -14.38537 -10.44659 -10.41140
 Alpha  occ. eigenvalues --  -10.39045 -10.38894 -10.37063 -10.35929 -10.35836
 Alpha  occ. eigenvalues --  -10.35562 -10.35258 -10.34537 -10.34497 -10.34412
 Alpha  occ. eigenvalues --  -10.34295 -10.34043 -10.33088 -10.32924 -10.32875
 Alpha  occ. eigenvalues --  -10.30766 -10.30193 -10.30088 -10.29931 -10.29868
 Alpha  occ. eigenvalues --  -10.29570 -10.29564 -10.29402 -10.29385 -10.29258
 Alpha  occ. eigenvalues --  -10.28994 -10.28494 -10.28147 -10.28112 -10.27940
 Alpha  occ. eigenvalues --  -10.27879 -10.27694 -10.27408 -10.27271 -10.26992
 Alpha  occ. eigenvalues --  -10.26439 -10.26072 -10.25689 -10.25585 -10.25467
 Alpha  occ. eigenvalues --  -10.25271 -10.25116 -10.25072 -10.24764 -10.24609
 Alpha  occ. eigenvalues --  -10.24369 -10.24353 -10.24276 -10.24180 -10.24064
 Alpha  occ. eigenvalues --  -10.24035 -10.23891 -10.23736 -10.23688 -10.23656
 Alpha  occ. eigenvalues --  -10.23628 -10.23543 -10.23536 -10.21513 -10.21330
 Alpha  occ. eigenvalues --  -10.21158 -10.20700  -1.22599  -1.16928  -1.15195
 Alpha  occ. eigenvalues --   -1.13783  -1.12646  -1.11756  -1.11379  -1.11058
 Alpha  occ. eigenvalues --   -1.10979  -1.10622  -1.10215  -1.09419  -1.09020
 Alpha  occ. eigenvalues --   -1.08740  -1.08565  -1.07853  -1.07734  -1.07582
 Alpha  occ. eigenvalues --   -1.07383  -1.03822  -1.00607  -1.00086  -0.99585
 Alpha  occ. eigenvalues --   -0.99570  -0.99309  -0.98814  -0.98308  -0.97905
 Alpha  occ. eigenvalues --   -0.97853  -0.97479  -0.95705  -0.95436  -0.94519
 Alpha  occ. eigenvalues --   -0.93371  -0.93088  -0.91518  -0.90872  -0.88049
 Alpha  occ. eigenvalues --   -0.86956  -0.86386  -0.85847  -0.85392  -0.84645
 Alpha  occ. eigenvalues --   -0.84612  -0.83908  -0.83811  -0.83683  -0.83346
 Alpha  occ. eigenvalues --   -0.82987  -0.81332  -0.80223  -0.80178  -0.80074
 Alpha  occ. eigenvalues --   -0.79880  -0.79450  -0.79359  -0.77827  -0.77146
 Alpha  occ. eigenvalues --   -0.75624  -0.75067  -0.74273  -0.73202  -0.72911
 Alpha  occ. eigenvalues --   -0.72390  -0.72292  -0.72015  -0.71882  -0.71767
 Alpha  occ. eigenvalues --   -0.71272  -0.71127  -0.70612  -0.69705  -0.69525
 Alpha  occ. eigenvalues --   -0.69448  -0.68964  -0.67916  -0.67675  -0.67569
 Alpha  occ. eigenvalues --   -0.67463  -0.66975  -0.66457  -0.66347  -0.66078
 Alpha  occ. eigenvalues --   -0.65720  -0.65235  -0.65121  -0.65029  -0.64861
 Alpha  occ. eigenvalues --   -0.64348  -0.64293  -0.64255  -0.64134  -0.63884
 Alpha  occ. eigenvalues --   -0.63704  -0.63314  -0.62803  -0.62288  -0.61995
 Alpha  occ. eigenvalues --   -0.61841  -0.61542  -0.60596  -0.60449  -0.60361
 Alpha  occ. eigenvalues --   -0.59771  -0.59710  -0.59593  -0.59180  -0.58810
 Alpha  occ. eigenvalues --   -0.58312  -0.57960  -0.57647  -0.57397  -0.57111
 Alpha  occ. eigenvalues --   -0.56872  -0.56760  -0.56581  -0.56455  -0.56108
 Alpha  occ. eigenvalues --   -0.55884  -0.55597  -0.55152  -0.54931  -0.54830
 Alpha  occ. eigenvalues --   -0.54538  -0.54356  -0.54109  -0.53945  -0.53587
 Alpha  occ. eigenvalues --   -0.53526  -0.53382  -0.52914  -0.52801  -0.52683
 Alpha  occ. eigenvalues --   -0.52595  -0.52387  -0.52170  -0.52089  -0.51823
 Alpha  occ. eigenvalues --   -0.51717  -0.51528  -0.51223  -0.50947  -0.50857
 Alpha  occ. eigenvalues --   -0.50703  -0.50617  -0.50513  -0.50413  -0.50133
 Alpha  occ. eigenvalues --   -0.50040  -0.49807  -0.49572  -0.49406  -0.49201
 Alpha  occ. eigenvalues --   -0.49049  -0.48822  -0.48757  -0.48460  -0.48362
 Alpha  occ. eigenvalues --   -0.48185  -0.48056  -0.47858  -0.47761  -0.47640
 Alpha  occ. eigenvalues --   -0.47532  -0.47426  -0.47206  -0.47126  -0.46939
 Alpha  occ. eigenvalues --   -0.46895  -0.46792  -0.46753  -0.46607  -0.46505
 Alpha  occ. eigenvalues --   -0.46383  -0.46206  -0.45882  -0.45841  -0.45812
 Alpha  occ. eigenvalues --   -0.45671  -0.45492  -0.45421  -0.45349  -0.45085
 Alpha  occ. eigenvalues --   -0.45036  -0.44972  -0.44909  -0.44419  -0.44359
 Alpha  occ. eigenvalues --   -0.44192  -0.44117  -0.44025  -0.43754  -0.43682
 Alpha  occ. eigenvalues --   -0.43511  -0.43379  -0.43194  -0.43085  -0.42972
 Alpha  occ. eigenvalues --   -0.42824  -0.42771  -0.42631  -0.42565  -0.42373
 Alpha  occ. eigenvalues --   -0.42330  -0.42127  -0.42064  -0.41916  -0.41746
 Alpha  occ. eigenvalues --   -0.41636  -0.41456  -0.41221  -0.40833  -0.40492
 Alpha  occ. eigenvalues --   -0.40417  -0.40264  -0.40065  -0.39952  -0.39933
 Alpha  occ. eigenvalues --   -0.39673  -0.39440  -0.39084  -0.38927  -0.38874
 Alpha  occ. eigenvalues --   -0.38356  -0.37998  -0.37728  -0.37579  -0.37241
 Alpha  occ. eigenvalues --   -0.37004  -0.36938  -0.36876  -0.35192  -0.34854
 Alpha  occ. eigenvalues --   -0.34498  -0.34457  -0.34401  -0.34365  -0.34136
 Alpha  occ. eigenvalues --   -0.33949  -0.33606  -0.33425  -0.33235  -0.33117
 Alpha  occ. eigenvalues --   -0.32874  -0.32751  -0.31784  -0.31567  -0.31423
 Alpha  occ. eigenvalues --   -0.31328  -0.31170  -0.31117  -0.30877  -0.30712
 Alpha  occ. eigenvalues --   -0.30554  -0.30447  -0.30427  -0.30048  -0.29818
 Alpha  occ. eigenvalues --   -0.29657  -0.29397  -0.29102  -0.28348  -0.28075
 Alpha  occ. eigenvalues --   -0.27036
 Alpha virt. eigenvalues --   -0.11516  -0.11023  -0.10235  -0.08678  -0.07409
 Alpha virt. eigenvalues --   -0.06522  -0.06459  -0.06227  -0.06099  -0.05989
 Alpha virt. eigenvalues --   -0.05951  -0.05533  -0.04707  -0.04661  -0.04458

 Mulliken charges:
               1
     1  N   -0.761662
     2  H    0.414600
     3  H    0.417306
     4  H    0.398995
     5  C   -0.107580
     6  H    0.235030
     7  C    0.636222
     8  C   -0.387589
     9  H    0.204482
    10  H    0.227599
    11  O   -0.546554
    12  C    0.611641
    13  O   -0.441554
    14  O   -0.545055
    15  N   -0.612576
    16  H    0.409028
    17  C   -0.042801
    18  H    0.194736
    19  C    0.637835
    20  C   -0.383803
    21  H    0.169578
    22  H    0.202610
    23  O   -0.536119
    24  C    0.129138
    25  C   -0.182656
    26  H    0.155262
    27  C   -0.186373
    28  H    0.217385
    29  C   -0.287627
    30  H    0.164868
    31  C   -0.202715
    32  H    0.155987
    33  O   -0.634929
    34  H    0.421017
    35  C    0.361660
    36  N   -0.593637
    37  H    0.336046
    38  C   -0.043033
    39  H    0.197358
    40  C    0.630228
    41  C   -0.412406
    42  H    0.186131
    43  H    0.156057
    44  O   -0.561460
    45  C    0.172008
    46  C   -0.190885
    47  H    0.159195
    48  C   -0.212820
    49  H    0.123865
    50  C   -0.169221
    51  H    0.150860
    52  C   -0.192819
    53  H    0.125193
    54  O   -0.636422
    55  H    0.410861
    56  C    0.352593
    57  N   -0.627388
    58  H    0.411400
    59  C   -0.068543
    60  H    0.201814
    61  C    0.634290
    62  C   -0.404592
    63  H    0.201294
    64  H    0.133719
    65  O   -0.546527
    66  C    0.179746
    67  C   -0.183056
    68  H    0.124615
    69  C   -0.154391
    70  H    0.153928
    71  C   -0.148164
    72  H    0.120223
    73  C   -0.135902
    74  H    0.162282
    75  C   -0.139521
    76  H    0.108371
    77  N   -0.602167
    78  H    0.343249
    79  C   -0.061892
    80  H    0.184902
    81  C    0.622859
    82  C   -0.459451
    83  H    0.175680
    84  H    0.156572
    85  H    0.171245
    86  O   -0.523477
    87  N   -0.605741
    88  H    0.364528
    89  C   -0.078915
    90  H    0.183052
    91  C    0.635293
    92  C   -0.284305
    93  H    0.179873
    94  H    0.127790
    95  O   -0.566611
    96  C   -0.081395
    97  H    0.120829
    98  C   -0.486257
    99  H    0.186966
   100  H    0.135691
   101  H    0.149338
   102  C   -0.459758
   103  H    0.131577
   104  H    0.143145
   105  H    0.172498
   106  N   -0.581957
   107  H    0.343884
   108  C   -0.068150
   109  H    0.184531
   110  C    0.644991
   111  C   -0.462390
   112  H    0.178783
   113  H    0.172167
   114  H    0.167702
   115  O   -0.555729
   116  N   -0.610397
   117  H    0.359996
   118  C   -0.055111
   119  H    0.198268
   120  C    0.620592
   121  C   -0.405228
   122  H    0.228352
   123  H    0.167989
   124  O   -0.554871
   125  C    0.296127
   126  C   -0.072341
   127  H    0.183650
   128  N   -0.573704
   129  H    0.349775
   130  C    0.199735
   131  H    0.214353
   132  N   -0.489410
   133  N   -0.637656
   134  H    0.419609
   135  C   -0.089283
   136  H    0.194131
   137  C    0.582947
   138  C    0.147016
   139  H    0.121016
   140  O   -0.517854
   141  C   -0.464676
   142  H    0.148216
   143  H    0.166761
   144  H    0.170160
   145  O   -0.670142
   146  H    0.434962
   147  N   -0.606614
   148  H    0.340269
   149  C   -0.062893
   150  H    0.189843
   151  C    0.602890
   152  C   -0.075998
   153  H    0.139396
   154  O   -0.528939
   155  C   -0.461183
   156  H    0.134603
   157  H    0.174641
   158  H    0.148036
   159  C   -0.446480
   160  H    0.146894
   161  H    0.149897
   162  H    0.143945
   163  N   -0.633603
   164  H    0.365810
   165  C   -0.020197
   166  H    0.165227
   167  C    0.596714
   168  C   -0.319023
   169  H    0.189986
   170  H    0.132413
   171  O   -0.605305
   172  C   -0.277939
   173  H    0.156796
   174  H    0.173473
   175  C   -0.171298
   176  H    0.146411
   177  H    0.172511
   178  N   -0.572933
   179  H    0.377830
   180  N   -0.782493
   181  H    0.418423
   182  H    0.350664
   183  N   -0.831174
   184  H    0.424171
   185  H    0.393757
   186  C    0.736841
   187  O   -0.593412
   188  H    0.439434
 Sum of Mulliken charges =   1.00000

 Dipole moment (field-independent basis, Debye):
    X=            -26.5386    Y=             -4.0501    Z=             -4.0530  Tot=             27.1501
 Quadrupole moment (field-independent basis, Debye-Ang):
   XX=           -196.2772   YY=           -492.3897   ZZ=           -486.5743
   XY=             78.3648   XZ=             65.0103   YZ=             30.4725

 Normal termination of Gaussian 16 at Wed Aug 10 04:02:14 2022.
