 Gaussian 16, Revision C.01,
 Gaussian 16:  ES64L-G16RevC.01  3-Jul-2019

 ----------------------------------------------------------------------
 # B3LYP/6-31G* empiricaldispersion=gd3bj guess=read geom=check nosymm
 integral(ultrafinegrid)
 ----------------------------------------------------------------------

 ------------------------------------------------------
 Candidate Structure: Conf:839 Charge calc in gas phase
 ------------------------------------------------------
 Structure from the checkpoint file:  "conf-839.chk"
 Charge =  1 Multiplicity = 1

                          Input orientation:
 ---------------------------------------------------------------------
 Center     Atomic      Atomic             Coordinates (Angstroms)
 Number     Number       Type             X           Y           Z
 ---------------------------------------------------------------------
      1          7           0        3.174510   -6.584518    2.514716
      2          1           0        2.210625   -6.850690    2.758712
      3          1           0        3.623783   -7.405357    2.072216
      4          1           0        3.733923   -6.253500    3.330710
      5          6           0        3.191511   -5.520808    1.441475
      6          1           0        2.415103   -4.785216    1.656556
      7          6           0        2.903844   -6.318035    0.158785
      8          6           0        4.580675   -4.874685    1.395585
      9          1           0        5.321792   -5.642983    1.146333
     10          1           0        4.581361   -4.126560    0.602374
     11          8           0        3.489797   -7.400482    0.018801
     12          6           0        4.957235   -4.207471    2.716579
     13          8           0        5.116981   -3.014809    2.843163
     14          8           0        5.060487   -5.110848    3.707233
     15          7           0        1.999125   -5.784779   -0.656129
     16          1           0        1.595156   -4.866877   -0.419331
     17          6           0        1.404061   -6.500650   -1.774157
     18          1           0        2.145118   -6.630978   -2.573098
     19          6           0        0.282138   -5.589936   -2.286676
     20          6           0        0.874952   -7.920811   -1.378691
     21          1           0        1.738872   -8.583248   -1.309447
     22          1           0        0.248501   -8.284144   -2.201613
     23          8           0       -0.064854   -4.589783   -1.659088
     24          6           0        0.108941   -7.923908   -0.079098
     25          6           0        0.712785   -8.365598    1.106092
     26          1           0        1.695615   -8.824044    1.052407
     27          6           0       -1.197713   -7.427599   -0.006710
     28          1           0       -1.722456   -7.131343   -0.911123
     29          6           0        0.081513   -8.224097    2.343575
     30          1           0        0.533687   -8.592081    3.261765
     31          6           0       -1.848579   -7.305104    1.216074
     32          1           0       -2.857530   -6.908606    1.256935
     33          8           0       -1.759059   -7.458709    3.626093
     34          1           0       -2.549604   -6.902732    3.514642
     35          6           0       -1.195331   -7.649745    2.402020
     36          7           0       -0.299515   -5.922640   -3.459778
     37          1           0       -0.100034   -6.807746   -3.904559
     38          6           0       -1.416306   -5.121537   -3.942383
     39          1           0       -1.078679   -4.081989   -3.998404
     40          6           0       -2.614526   -5.231918   -2.981179
     41          6           0       -1.871206   -5.586571   -5.337669
     42          1           0       -2.160576   -6.641362   -5.268780
     43          1           0       -1.023611   -5.508756   -6.028505
     44          8           0       -3.086244   -6.336441   -2.705135
     45          6           0       -3.038113   -4.751833   -5.813031
     46          6           0       -4.357160   -5.146308   -5.547175
     47          1           0       -4.539058   -6.099212   -5.058859
     48          6           0       -2.828942   -3.514760   -6.428616
     49          1           0       -1.815554   -3.186739   -6.648565
     50          6           0       -5.434066   -4.330179   -5.875673
     51          1           0       -6.455971   -4.638711   -5.680613
     52          6           0       -3.897677   -2.686430   -6.766936
     53          1           0       -3.715015   -1.728596   -7.249325
     54          8           0       -6.297638   -2.328141   -6.780296
     55          1           0       -6.010398   -1.519755   -7.232801
     56          6           0       -5.206144   -3.091340   -6.485882
     57          7           0       -3.094354   -4.049825   -2.551818
     58          1           0       -2.605850   -3.191555   -2.786310
     59          6           0       -4.363978   -3.824659   -1.887837
     60          1           0       -5.169574   -3.998561   -2.617379
     61          6           0       -4.384326   -2.329070   -1.529012
     62          6           0       -4.646974   -4.744201   -0.679370
     63          1           0       -5.719207   -4.685302   -0.454640
     64          1           0       -4.471415   -5.764721   -1.032515
     65          8           0       -3.470447   -1.575110   -1.884615
     66          6           0       -3.857986   -4.494775    0.586566
     67          6           0       -2.479006   -4.244739    0.570235
     68          1           0       -1.950544   -4.180103   -0.371970
     69          6           0       -4.499547   -4.618631    1.826159
     70          1           0       -5.570748   -4.803334    1.858698
     71          6           0       -1.759512   -4.154432    1.760394
     72          1           0       -0.688885   -3.984571    1.718523
     73          6           0       -3.782132   -4.527135    3.020890
     74          1           0       -4.302347   -4.616695    3.970852
     75          6           0       -2.403512   -4.301760    2.989839
     76          1           0       -1.839575   -4.239772    3.915349
     77          7           0       -5.465578   -1.899218   -0.852165
     78          1           0       -6.136184   -2.571667   -0.507013
     79          6           0       -5.709974   -0.484355   -0.551251
     80          1           0       -5.323151    0.079566   -1.406113
     81          6           0       -4.927902   -0.050009    0.709806
     82          6           0       -7.203070   -0.243848   -0.378269
     83          1           0       -7.393581    0.817991   -0.207137
     84          1           0       -7.746692   -0.560867   -1.273328
     85          1           0       -7.581163   -0.782529    0.495690
     86          8           0       -5.485063    0.163565    1.780124
     87          7           0       -3.590564    0.089367    0.508316
     88          1           0       -3.192073   -0.207649   -0.379365
     89          6           0       -2.705156    0.489103    1.586025
     90          1           0       -3.349511    0.925569    2.351821
     91          6           0       -1.723755    1.530289    1.057678
     92          6           0       -1.927333   -0.705543    2.176576
     93          1           0       -2.658633   -1.376373    2.640978
     94          1           0       -1.484561   -1.257893    1.343296
     95          8           0       -0.996080    1.312785    0.077733
     96          6           0       -0.821989   -0.332803    3.181316
     97          1           0       -0.145197    0.379545    2.692695
     98          6           0       -1.370890    0.331700    4.449047
     99          1           0       -2.030957   -0.356529    4.991268
    100          1           0       -0.554151    0.626164    5.114716
    101          1           0       -1.945825    1.238441    4.235042
    102          6           0        0.015883   -1.565221    3.543218
    103          1           0       -0.594633   -2.304846    4.073662
    104          1           0        0.847196   -1.288246    4.198337
    105          1           0        0.436484   -2.040979    2.653401
    106          7           0       -1.672225    2.687862    1.753868
    107          1           0       -2.213638    2.752748    2.605882
    108          6           0       -0.566217    3.637830    1.609909
    109          1           0       -0.412603    3.796297    0.539272
    110          6           0        0.667179    2.968602    2.240763
    111          6           0       -0.894929    4.948188    2.312727
    112          1           0       -0.087167    5.669433    2.160083
    113          1           0       -0.989994    4.782943    3.389923
    114          1           0       -1.822941    5.372376    1.918739
    115          8           0        0.801810    2.903888    3.464094
    116          7           0        1.539981    2.419800    1.365908
    117          1           0        1.265473    2.406422    0.392720
    118          6           0        2.606879    1.504321    1.770543
    119          1           0        2.224134    0.905888    2.608239
    120          6           0        3.868397    2.211430    2.326191
    121          6           0        2.988345    0.574128    0.608897
    122          1           0        4.037759    0.311803    0.759063
    123          1           0        2.956982    1.140981   -0.332456
    124          8           0        4.995992    1.836042    1.998530
    125          6           0        2.211799   -0.695371    0.490677
    126          6           0        2.616038   -1.982105    0.756466
    127          1           0        3.557088   -2.277477    1.198176
    128          7           0        0.933748   -0.825716   -0.029865
    129          1           0        0.268087   -0.071789   -0.213310
    130          6           0        0.630386   -2.150142   -0.061582
    131          1           0       -0.300858   -2.525686   -0.453530
    132          7           0        1.628094   -2.888955    0.407897
    133          7           0        3.648792    3.164919    3.255814
    134          1           0        2.703641    3.316263    3.611147
    135          6           0        4.738334    3.651823    4.101752
    136          1           0        5.648715    3.670127    3.496676
    137          6           0        4.896170    2.641088    5.262095
    138          6           0        4.398262    5.053271    4.631546
    139          1           0        5.207276    5.344027    5.318504
    140          8           0        4.556322    2.913635    6.418614
    141          6           0        4.283818    6.081435    3.516754
    142          1           0        5.230384    6.177549    2.974170
    143          1           0        3.503990    5.790211    2.806144
    144          1           0        4.019835    7.054237    3.940665
    145          8           0        3.154990    5.012858    5.319535
    146          1           0        3.313287    4.401730    6.066522
    147          7           0        5.337138    1.425312    4.876065
    148          1           0        5.628985    1.278426    3.911357
    149          6           0        5.237081    0.233338    5.699815
    150          1           0        5.304075    0.541556    6.748055
    151          6           0        6.432225   -0.645535    5.312473
    152          6           0        3.882179   -0.505574    5.475181
    153          1           0        3.866320   -0.818469    4.421435
    154          8           0        6.899624   -0.620966    4.181930
    155          6           0        3.765395   -1.762646    6.347173
    156          1           0        3.846590   -1.505591    7.413271
    157          1           0        4.519173   -2.514465    6.104912
    158          1           0        2.779308   -2.220133    6.206661
    159          6           0        2.696908    0.432035    5.746961
    160          1           0        2.769164    0.877721    6.743955
    161          1           0        1.758611   -0.129615    5.696941
    162          1           0        2.626905    1.248027    5.025009
    163          7           0        6.966633   -1.418680    6.309574
    164          1           0        6.384260   -1.606510    7.115417
    165          6           0        7.966151   -2.417837    5.963705
    166          1           0        8.637771   -1.941773    5.246550
    167          6           0        7.332755   -3.624592    5.243126
    168          6           0        8.751185   -2.818816    7.241027
    169          1           0        8.704908   -1.946071    7.899773
    170          1           0        8.225173   -3.628316    7.764911
    171          8           0        8.024503   -4.217219    4.365914
    172          6           0       10.246291   -3.174122    7.054693
    173          1           0       10.812898   -2.772644    7.901775
    174          1           0       10.642683   -2.671101    6.164112
    175          6           0       10.594375   -4.664350    6.984592
    176          1           0       10.238971   -5.177453    7.887123
    177          1           0       11.684974   -4.779164    6.938987
    178          7           0        9.973894   -5.280356    5.811164
    179          1           0        9.502888   -4.651151    5.136710
    180          7           0       10.060660   -7.487725    6.539348
    181          1           0        9.669497   -8.416880    6.562808
    182          1           0       10.950700   -7.343435    6.991354
    183          7           0        8.554517   -6.829018    4.881974
    184          1           0        8.393488   -7.775977    4.575337
    185          1           0        8.068963   -6.028320    4.441046
    186          6           0        9.538753   -6.534326    5.739344
    187          8           0        6.170542   -3.971795    5.608030
    188          1           0        5.510927   -4.649198    4.579353
 ---------------------------------------------------------------------

 SCF Done:  E(RB3LYP) =  -4648.99716008     A.U. after    1 cycles

 Alpha  occ. eigenvalues --  -19.24218 -19.24145 -19.23550 -19.21492 -19.20712
 Alpha  occ. eigenvalues --  -19.20489 -19.20273 -19.20058 -19.18934 -19.18802
 Alpha  occ. eigenvalues --  -19.18556 -19.18466 -19.17210 -19.16983 -19.16482
 Alpha  occ. eigenvalues --  -19.16471 -19.16170 -14.54175 -14.49018 -14.46690
 Alpha  occ. eigenvalues --  -14.46314 -14.44875 -14.44662 -14.44519 -14.44283
 Alpha  occ. eigenvalues --  -14.44142 -14.43517 -14.42809 -14.41396 -14.41145
 Alpha  occ. eigenvalues --  -14.40391 -14.39475 -14.38492 -10.43920 -10.38751
 Alpha  occ. eigenvalues --  -10.38455 -10.37601 -10.37237 -10.36605 -10.35936
 Alpha  occ. eigenvalues --  -10.35634 -10.35629 -10.35221 -10.34354 -10.33963
 Alpha  occ. eigenvalues --  -10.33391 -10.32947 -10.32574 -10.32455 -10.31742
 Alpha  occ. eigenvalues --  -10.31449 -10.30955 -10.30852 -10.30691 -10.30235
 Alpha  occ. eigenvalues --  -10.29950 -10.29828 -10.29313 -10.29238 -10.28933
 Alpha  occ. eigenvalues --  -10.27895 -10.27687 -10.27527 -10.27226 -10.27213
 Alpha  occ. eigenvalues --  -10.27014 -10.26988 -10.26674 -10.26594 -10.26529
 Alpha  occ. eigenvalues --  -10.26314 -10.26032 -10.26006 -10.25992 -10.25786
 Alpha  occ. eigenvalues --  -10.25714 -10.25665 -10.25384 -10.25349 -10.25311
 Alpha  occ. eigenvalues --  -10.25289 -10.25250 -10.25117 -10.24926 -10.24864
 Alpha  occ. eigenvalues --  -10.24796 -10.24557 -10.24511 -10.24365 -10.24365
 Alpha  occ. eigenvalues --  -10.23997 -10.23991 -10.22485 -10.22424 -10.21763
 Alpha  occ. eigenvalues --  -10.21210 -10.20944  -1.15671  -1.13946  -1.12969
 Alpha  occ. eigenvalues --   -1.12885  -1.12390  -1.12374  -1.11848  -1.11834
 Alpha  occ. eigenvalues --   -1.11667  -1.10660  -1.10200  -1.09119  -1.09081
 Alpha  occ. eigenvalues --   -1.08877  -1.08632  -1.07694  -1.06962  -1.06894
 Alpha  occ. eigenvalues --   -1.04237  -1.03270  -1.01841  -1.01713  -1.01138
 Alpha  occ. eigenvalues --   -1.00881  -1.00691  -1.00615  -0.99861  -0.99818
 Alpha  occ. eigenvalues --   -0.98182  -0.97767  -0.97335  -0.96089  -0.92734
 Alpha  occ. eigenvalues --   -0.92536  -0.92320  -0.91646  -0.89124  -0.88133
 Alpha  occ. eigenvalues --   -0.87645  -0.87213  -0.86479  -0.86103  -0.85187
 Alpha  occ. eigenvalues --   -0.84929  -0.84171  -0.83718  -0.82144  -0.81761
 Alpha  occ. eigenvalues --   -0.81538  -0.81531  -0.81053  -0.80792  -0.80747
 Alpha  occ. eigenvalues --   -0.80056  -0.79173  -0.78818  -0.77312  -0.77209
 Alpha  occ. eigenvalues --   -0.75726  -0.74540  -0.74346  -0.73966  -0.73636
 Alpha  occ. eigenvalues --   -0.73520  -0.72986  -0.72655  -0.72512  -0.71755
 Alpha  occ. eigenvalues --   -0.71035  -0.70002  -0.69603  -0.69252  -0.69055
 Alpha  occ. eigenvalues --   -0.68869  -0.68467  -0.68364  -0.68151  -0.67569
 Alpha  occ. eigenvalues --   -0.67257  -0.67222  -0.66970  -0.66563  -0.66481
 Alpha  occ. eigenvalues --   -0.66343  -0.66066  -0.65668  -0.64925  -0.64759
 Alpha  occ. eigenvalues --   -0.64552  -0.64428  -0.64296  -0.63576  -0.63322
 Alpha  occ. eigenvalues --   -0.63268  -0.62852  -0.62329  -0.62184  -0.61787
 Alpha  occ. eigenvalues --   -0.61556  -0.61294  -0.61247  -0.61001  -0.60688
 Alpha  occ. eigenvalues --   -0.60345  -0.60236  -0.59730  -0.58676  -0.58555
 Alpha  occ. eigenvalues --   -0.58392  -0.58315  -0.57747  -0.57384  -0.57099
 Alpha  occ. eigenvalues --   -0.57026  -0.56769  -0.56332  -0.56122  -0.55823
 Alpha  occ. eigenvalues --   -0.55715  -0.55324  -0.54829  -0.54657  -0.54598
 Alpha  occ. eigenvalues --   -0.54556  -0.54272  -0.54247  -0.54065  -0.53660
 Alpha  occ. eigenvalues --   -0.53505  -0.53413  -0.52985  -0.52889  -0.52767
 Alpha  occ. eigenvalues --   -0.52641  -0.52350  -0.52182  -0.52041  -0.51731
 Alpha  occ. eigenvalues --   -0.51641  -0.51515  -0.51295  -0.51065  -0.51027
 Alpha  occ. eigenvalues --   -0.50585  -0.50520  -0.50363  -0.50060  -0.50039
 Alpha  occ. eigenvalues --   -0.49829  -0.49625  -0.49578  -0.49369  -0.49114
 Alpha  occ. eigenvalues --   -0.48959  -0.48762  -0.48619  -0.48487  -0.48432
 Alpha  occ. eigenvalues --   -0.48357  -0.48208  -0.48153  -0.48134  -0.47950
 Alpha  occ. eigenvalues --   -0.47794  -0.47708  -0.47633  -0.47237  -0.47211
 Alpha  occ. eigenvalues --   -0.46926  -0.46811  -0.46645  -0.46501  -0.46360
 Alpha  occ. eigenvalues --   -0.46253  -0.46173  -0.46111  -0.45927  -0.45774
 Alpha  occ. eigenvalues --   -0.45667  -0.45464  -0.45332  -0.45312  -0.45119
 Alpha  occ. eigenvalues --   -0.44849  -0.44819  -0.44559  -0.44500  -0.44428
 Alpha  occ. eigenvalues --   -0.44274  -0.44229  -0.44035  -0.43783  -0.43714
 Alpha  occ. eigenvalues --   -0.43534  -0.43515  -0.43423  -0.43272  -0.43004
 Alpha  occ. eigenvalues --   -0.42886  -0.42831  -0.42765  -0.42554  -0.42379
 Alpha  occ. eigenvalues --   -0.42237  -0.42225  -0.42027  -0.41705  -0.41655
 Alpha  occ. eigenvalues --   -0.41501  -0.41442  -0.41346  -0.41249  -0.40657
 Alpha  occ. eigenvalues --   -0.40584  -0.40498  -0.40091  -0.40010  -0.39585
 Alpha  occ. eigenvalues --   -0.39514  -0.39371  -0.39166  -0.38623  -0.38464
 Alpha  occ. eigenvalues --   -0.37991  -0.37968  -0.37851  -0.37814  -0.37368
 Alpha  occ. eigenvalues --   -0.36689  -0.36331  -0.36009  -0.35784  -0.35725
 Alpha  occ. eigenvalues --   -0.35419  -0.35175  -0.34692  -0.34553  -0.34528
 Alpha  occ. eigenvalues --   -0.34329  -0.34294  -0.34246  -0.33944  -0.33644
 Alpha  occ. eigenvalues --   -0.33399  -0.32958  -0.32854  -0.32638  -0.32451
 Alpha  occ. eigenvalues --   -0.31896  -0.31603  -0.31132  -0.31080  -0.30953
 Alpha  occ. eigenvalues --   -0.30720  -0.30611  -0.30301  -0.30227  -0.29822
 Alpha  occ. eigenvalues --   -0.29613  -0.28943  -0.28546  -0.28223  -0.27987
 Alpha  occ. eigenvalues --   -0.27721
 Alpha virt. eigenvalues --   -0.08837  -0.08421  -0.08161  -0.07596  -0.07309
 Alpha virt. eigenvalues --   -0.06880  -0.06716  -0.06394  -0.06108  -0.05878
 Alpha virt. eigenvalues --   -0.05583  -0.05251  -0.04997  -0.04879  -0.04737

 Mulliken charges:
               1
     1  N   -0.759247
     2  H    0.403346
     3  H    0.399782
     4  H    0.426562
     5  C   -0.136877
     6  H    0.238246
     7  C    0.649667
     8  C   -0.362499
     9  H    0.190890
    10  H    0.217310
    11  O   -0.561745
    12  C    0.615085
    13  O   -0.434845
    14  O   -0.679758
    15  N   -0.651096
    16  H    0.435777
    17  C   -0.020564
    18  H    0.184591
    19  C    0.636514
    20  C   -0.394818
    21  H    0.192153
    22  H    0.159740
    23  O   -0.539244
    24  C    0.165665
    25  C   -0.223860
    26  H    0.141059
    27  C   -0.204887
    28  H    0.183988
    29  C   -0.211622
    30  H    0.135820
    31  C   -0.186302
    32  H    0.149621
    33  O   -0.649416
    34  H    0.417253
    35  C    0.359072
    36  N   -0.617127
    37  H    0.343876
    38  C   -0.013262
    39  H    0.164528
    40  C    0.654146
    41  C   -0.396630
    42  H    0.172107
    43  H    0.162268
    44  O   -0.557895
    45  C    0.146125
    46  C   -0.186863
    47  H    0.155204
    48  C   -0.189817
    49  H    0.132139
    50  C   -0.169362
    51  H    0.148829
    52  C   -0.190441
    53  H    0.130947
    54  O   -0.636260
    55  H    0.413043
    56  C    0.353066
    57  N   -0.613965
    58  H    0.368623
    59  C   -0.030972
    60  H    0.190710
    61  C    0.635984
    62  C   -0.390769
    63  H    0.137665
    64  H    0.227344
    65  O   -0.560504
    66  C    0.153168
    67  C   -0.202897
    68  H    0.197300
    69  C   -0.193435
    70  H    0.133412
    71  C   -0.135875
    72  H    0.151058
    73  C   -0.158779
    74  H    0.147997
    75  C   -0.158870
    76  H    0.145151
    77  N   -0.599781
    78  H    0.344481
    79  C   -0.061092
    80  H    0.183432
    81  C    0.623919
    82  C   -0.467236
    83  H    0.181796
    84  H    0.156477
    85  H    0.173632
    86  O   -0.518929
    87  N   -0.625684
    88  H    0.373484
    89  C   -0.059825
    90  H    0.179946
    91  C    0.638412
    92  C   -0.263944
    93  H    0.164713
    94  H    0.139804
    95  O   -0.579143
    96  C   -0.103513
    97  H    0.141450
    98  C   -0.444468
    99  H    0.143814
   100  H    0.174040
   101  H    0.120828
   102  C   -0.486233
   103  H    0.134969
   104  H    0.159118
   105  H    0.165637
   106  N   -0.577205
   107  H    0.354773
   108  C   -0.052978
   109  H    0.172571
   110  C    0.636897
   111  C   -0.478139
   112  H    0.180230
   113  H    0.188685
   114  H    0.167716
   115  O   -0.545821
   116  N   -0.596053
   117  H    0.348109
   118  C   -0.065120
   119  H    0.207931
   120  C    0.630028
   121  C   -0.418698
   122  H    0.230425
   123  H    0.160131
   124  O   -0.533027
   125  C    0.318264
   126  C   -0.097619
   127  H    0.176499
   128  N   -0.631456
   129  H    0.391972
   130  C    0.222067
   131  H    0.189661
   132  N   -0.523402
   133  N   -0.622042
   134  H    0.399595
   135  C   -0.087706
   136  H    0.182603
   137  C    0.633174
   138  C    0.131328
   139  H    0.133930
   140  O   -0.558207
   141  C   -0.447982
   142  H    0.143217
   143  H    0.146854
   144  H    0.164224
   145  O   -0.651433
   146  H    0.418920
   147  N   -0.624438
   148  H    0.387394
   149  C   -0.061244
   150  H    0.168419
   151  C    0.633425
   152  C   -0.072381
   153  H    0.149539
   154  O   -0.514984
   155  C   -0.507302
   156  H    0.130264
   157  H    0.198722
   158  H    0.137077
   159  C   -0.475308
   160  H    0.165156
   161  H    0.145678
   162  H    0.158621
   163  N   -0.610480
   164  H    0.334460
   165  C   -0.026366
   166  H    0.193876
   167  C    0.645549
   168  C   -0.311524
   169  H    0.176759
   170  H    0.152193
   171  O   -0.609171
   172  C   -0.306315
   173  H    0.171638
   174  H    0.175434
   175  C   -0.151499
   176  H    0.167785
   177  H    0.171286
   178  N   -0.608496
   179  H    0.406349
   180  N   -0.759147
   181  H    0.368760
   182  H    0.378182
   183  N   -0.783862
   184  H    0.350015
   185  H    0.413637
   186  C    0.785681
   187  O   -0.602902
   188  H    0.480174
 Sum of Mulliken charges =   1.00000

 Dipole moment (field-independent basis, Debye):
    X=             16.8065    Y=            -28.1864    Z=              9.7942  Tot=             34.2470
 Quadrupole moment (field-independent basis, Debye-Ang):
   XX=           -294.1991   YY=           -353.3036   ZZ=           -424.1471
   XY=           -186.9780   XZ=            177.2137   YZ=           -125.8182

 Normal termination of Gaussian 16 at Wed Aug 10 03:58:44 2022.
