 Gaussian 16, Revision C.01,
 Gaussian 16:  ES64L-G16RevC.01  3-Jul-2019

 ----------------------------------------------------------------------
 # B3LYP/6-31G* empiricaldispersion=gd3bj guess=read geom=check nosymm
 integral(ultrafinegrid)
 ----------------------------------------------------------------------

 ------------------------------------------------------
 Candidate Structure: Conf:997 Charge calc in gas phase
 ------------------------------------------------------
 Structure from the checkpoint file:  "conf-997.chk"
 Charge =  1 Multiplicity = 1

                          Input orientation:
 ---------------------------------------------------------------------
 Center     Atomic      Atomic             Coordinates (Angstroms)
 Number     Number       Type             X           Y           Z
 ---------------------------------------------------------------------
      1          7           0      -10.483677   -6.675113   -6.414100
      2          1           0      -10.947418   -7.224285   -5.683409
      3          1           0      -10.945332   -5.719676   -6.457747
      4          1           0      -10.569439   -7.173845   -7.304220
      5          6           0       -9.060187   -6.305342   -6.058832
      6          1           0       -8.658518   -7.040457   -5.361205
      7          6           0       -9.229912   -4.896690   -5.426352
      8          6           0       -8.214107   -6.232023   -7.349185
      9          1           0       -7.975877   -7.244936   -7.691781
     10          1           0       -8.760932   -5.696737   -8.130105
     11          8           0      -10.243796   -4.260320   -5.740752
     12          6           0       -6.929677   -5.447256   -7.087436
     13          8           0       -6.678022   -4.390977   -7.612169
     14          8           0       -6.191367   -6.043827   -6.136567
     15          7           0       -8.234024   -4.488986   -4.647591
     16          1           0       -7.422931   -5.092459   -4.519761
     17          6           0       -7.936076   -3.089174   -4.340963
     18          1           0       -8.549098   -2.463036   -4.992739
     19          6           0       -6.440911   -2.924002   -4.676679
     20          6           0       -8.231490   -2.745674   -2.858701
     21          1           0       -7.686169   -3.453903   -2.225518
     22          1           0       -9.302342   -2.910842   -2.694000
     23          8           0       -5.682345   -3.910365   -4.598854
     24          6           0       -7.828267   -1.327846   -2.538123
     25          6           0       -6.638378   -1.058085   -1.849457
     26          1           0       -6.044863   -1.882841   -1.463039
     27          6           0       -8.569954   -0.247947   -3.030352
     28          1           0       -9.503951   -0.427524   -3.558747
     29          6           0       -6.191375    0.244374   -1.662808
     30          1           0       -5.269973    0.453070   -1.130295
     31          6           0       -8.131090    1.062757   -2.858908
     32          1           0       -8.714889    1.890818   -3.253457
     33          8           0       -6.442379    2.565828   -1.986839
     34          1           0       -7.005379    3.210290   -2.443690
     35          6           0       -6.933801    1.310248   -2.180905
     36          7           0       -6.041649   -1.701913   -5.007398
     37          1           0       -6.673266   -0.904458   -4.971526
     38          6           0       -4.650589   -1.356174   -5.253761
     39          1           0       -4.018382   -1.995363   -4.632308
     40          6           0       -4.501176    0.119534   -4.875115
     41          6           0       -4.288259   -1.562276   -6.751802
     42          1           0       -5.014712   -0.998396   -7.345909
     43          1           0       -4.433058   -2.623203   -6.980903
     44          8           0       -5.432420    0.903920   -5.068060
     45          6           0       -2.885072   -1.102255   -7.056263
     46          6           0       -2.652858    0.165790   -7.606380
     47          1           0       -3.499878    0.784684   -7.891792
     48          6           0       -1.778099   -1.876456   -6.693282
     49          1           0       -1.928323   -2.867543   -6.270862
     50          6           0       -1.363240    0.657212   -7.775026
     51          1           0       -1.184777    1.642066   -8.193375
     52          6           0       -0.479636   -1.396276   -6.850044
     53          1           0        0.368735   -2.004916   -6.545880
     54          8           0        0.972866    0.427570   -7.520295
     55          1           0        1.635071   -0.193196   -7.177263
     56          6           0       -0.271790   -0.119790   -7.377593
     57          7           0       -3.297639    0.465534   -4.384325
     58          1           0       -2.535401   -0.206995   -4.371372
     59          6           0       -2.857010    1.846508   -4.312332
     60          1           0       -3.396689    2.418965   -5.072296
     61          6           0       -1.355830    1.829571   -4.623485
     62          6           0       -3.138828    2.476681   -2.920702
     63          1           0       -4.221218    2.451062   -2.766777
     64          1           0       -2.671981    1.845372   -2.157158
     65          8           0       -0.689996    0.809009   -4.398963
     66          6           0       -2.604302    3.885017   -2.844299
     67          6           0       -1.447459    4.172334   -2.112532
     68          1           0       -0.995615    3.396268   -1.503410
     69          6           0       -3.181318    4.900783   -3.620105
     70          1           0       -4.091442    4.695628   -4.180348
     71          6           0       -0.858244    5.434453   -2.175286
     72          1           0        0.050505    5.633368   -1.616739
     73          6           0       -2.591993    6.164911   -3.688400
     74          1           0       -3.046444    6.941520   -4.297248
     75          6           0       -1.421779    6.430748   -2.973613
     76          1           0       -0.956079    7.409572   -3.034085
     77          7           0       -0.839864    2.965770   -5.126697
     78          1           0       -1.418510    3.798051   -5.101927
     79          6           0        0.590010    3.163226   -5.398051
     80          1           0        0.951477    2.232069   -5.844778
     81          6           0        1.359670    3.414447   -4.083281
     82          6           0        0.762356    4.319916   -6.371363
     83          1           0        1.821049    4.468659   -6.593939
     84          1           0        0.230206    4.109963   -7.303806
     85          1           0        0.386052    5.250121   -5.934185
     86          8           0        1.886133    4.500096   -3.823796
     87          7           0        1.391122    2.352878   -3.247660
     88          1           0        0.896775    1.506113   -3.521163
     89          6           0        1.900817    2.476217   -1.886441
     90          1           0        1.647096    3.484086   -1.542752
     91          6           0        3.435683    2.355671   -1.907445
     92          6           0        1.299808    1.435058   -0.944660
     93          1           0        0.227474    1.331797   -1.159906
     94          1           0        1.772453    0.470492   -1.155901
     95          8           0        4.015101    1.284223   -1.704089
     96          6           0        1.509116    1.828851    0.532841
     97          1           0        2.494721    2.305000    0.622834
     98          6           0        0.480474    2.864573    1.000099
     99          1           0       -0.532213    2.437811    0.992991
    100          1           0        0.729748    3.186082    2.013670
    101          1           0        0.471885    3.756438    0.358985
    102          6           0        1.511770    0.607525    1.456606
    103          1           0        0.530945    0.112672    1.454646
    104          1           0        1.750768    0.913996    2.479601
    105          1           0        2.259177   -0.128809    1.136955
    106          7           0        4.087157    3.516392   -2.151968
    107          1           0        3.526172    4.290053   -2.502483
    108          6           0        5.549339    3.598688   -2.227607
    109          1           0        5.910393    2.679710   -2.704609
    110          6           0        6.095732    3.635225   -0.783184
    111          6           0        5.970075    4.822039   -3.027378
    112          1           0        7.058941    4.864727   -3.109589
    113          1           0        5.638205    5.739131   -2.532594
    114          1           0        5.541062    4.779542   -4.032824
    115          8           0        6.580572    4.669086   -0.287907
    116          7           0        5.936864    2.484723   -0.116847
    117          1           0        5.510061    1.705284   -0.619589
    118          6           0        6.080300    2.376804    1.314261
    119          1           0        5.772752    3.329187    1.752275
    120          6           0        7.526432    2.102871    1.710566
    121          6           0        5.147043    1.266768    1.878374
    122          1           0        4.153123    1.449889    1.469738
    123          1           0        5.026431    1.395196    2.957855
    124          8           0        8.409694    1.775775    0.921627
    125          6           0        5.595519   -0.120849    1.568331
    126          6           0        5.414052   -0.935611    0.471961
    127          1           0        4.834007   -0.719081   -0.415422
    128          7           0        6.409288   -0.850949    2.422069
    129          1           0        6.687915   -0.589819    3.367922
    130          6           0        6.658729   -2.047977    1.812844
    131          1           0        7.257651   -2.817545    2.281238
    132          7           0        6.080509   -2.133013    0.631535
    133          7           0        7.752727    2.228178    3.052663
    134          1           0        6.933513    2.416031    3.619928
    135          6           0        8.828744    1.462280    3.704552
    136          1           0        8.979340    0.540332    3.132396
    137          6           0        8.183392    1.071501    5.042542
    138          6           0       10.162079    2.225008    3.734011
    139          1           0       10.061385    3.117547    4.367277
    140          8           0        7.463896    0.077790    5.107727
    141          6           0       11.290955    1.351588    4.269871
    142          1           0       11.097321    1.048450    5.305002
    143          1           0       11.399977    0.450328    3.656872
    144          1           0       12.234138    1.902966    4.236932
    145          8           0       10.473108    2.721788    2.429360
    146          1           0        9.993949    2.171260    1.765483
    147          7           0        8.294786    1.990361    6.040199
    148          1           0        8.801673    2.838550    5.812181
    149          6           0        7.138348    2.293778    6.902585
    150          1           0        6.501515    1.406805    6.904090
    151          6           0        6.463765    3.478919    6.178407
    152          6           0        7.560312    2.651388    8.333370
    153          1           0        8.230089    3.519191    8.261718
    154          8           0        7.150814    4.507595    5.996219
    155          6           0        6.332030    3.059894    9.155941
    156          1           0        5.604206    2.240628    9.206334
    157          1           0        5.829338    3.933572    8.728399
    158          1           0        6.624662    3.309520   10.180844
    159          6           0        8.312370    1.487070    8.984109
    160          1           0        7.661312    0.609966    9.084059
    161          1           0        8.657210    1.764622    9.985796
    162          1           0        9.183386    1.192199    8.390906
    163          7           0        5.232338    3.246588    5.732117
    164          1           0        4.802711    2.312521    5.828956
    165          6           0        4.337955    4.032230    4.873778
    166          1           0        3.695421    4.661967    5.503795
    167          6           0        3.408510    2.943668    4.168943
    168          6           0        5.026338    4.876080    3.806874
    169          1           0        5.911043    4.328311    3.470705
    170          1           0        4.324837    4.902428    2.966634
    171          8           0        2.773558    3.348799    3.175505
    172          6           0        5.445135    6.295342    4.176676
    173          1           0        6.080048    6.280188    5.064557
    174          1           0        4.562661    6.894957    4.431222
    175          6           0        6.159797    6.991076    2.999008
    176          1           0        6.790741    7.811692    3.355853
    177          1           0        5.424059    7.415411    2.311444
    178          7           0        6.982861    6.107491    2.162491
    179          1           0        6.608501    5.783182    1.270115
    180          7           0        8.608225    5.668110    3.773656
    181          1           0        9.534400    5.295055    3.932916
    182          1           0        7.956331    5.502017    4.546552
    183          7           0        8.911774    4.989199    1.563294
    184          1           0        9.563988    4.252392    1.857637
    185          1           0        8.485432    4.877376    0.646339
    186          6           0        8.152140    5.568990    2.503218
    187          8           0        3.462907    1.794502    4.681060
    188          1           0       -5.582459   -5.355413   -5.761850
 ---------------------------------------------------------------------

 SCF Done:  E(RB3LYP) =  -4648.94141898     A.U. after    3 cycles

 Alpha  occ. eigenvalues --  -19.30531 -19.27857 -19.25950 -19.25165 -19.24172
 Alpha  occ. eigenvalues --  -19.22785 -19.20392 -19.19356 -19.19246 -19.18686
 Alpha  occ. eigenvalues --  -19.18521 -19.17940 -19.17261 -19.16907 -19.16307
 Alpha  occ. eigenvalues --  -19.09485 -19.08935 -14.61843 -14.50241 -14.46043
 Alpha  occ. eigenvalues --  -14.43173 -14.42990 -14.42735 -14.42528 -14.42315
 Alpha  occ. eigenvalues --  -14.41880 -14.41378 -14.40835 -14.40662 -14.40496
 Alpha  occ. eigenvalues --  -14.39455 -14.39413 -14.31964 -10.44596 -10.44515
 Alpha  occ. eigenvalues --  -10.42549 -10.39694 -10.38708 -10.36213 -10.36021
 Alpha  occ. eigenvalues --  -10.35835 -10.35500 -10.35065 -10.34876 -10.34316
 Alpha  occ. eigenvalues --  -10.33877 -10.33423 -10.33161 -10.32385 -10.31600
 Alpha  occ. eigenvalues --  -10.31062 -10.30646 -10.30311 -10.29708 -10.29271
 Alpha  occ. eigenvalues --  -10.29070 -10.28515 -10.28117 -10.27952 -10.27539
 Alpha  occ. eigenvalues --  -10.27381 -10.27376 -10.27168 -10.27071 -10.26733
 Alpha  occ. eigenvalues --  -10.26576 -10.26553 -10.25864 -10.25554 -10.25498
 Alpha  occ. eigenvalues --  -10.25309 -10.25244 -10.25178 -10.25074 -10.24750
 Alpha  occ. eigenvalues --  -10.24692 -10.24683 -10.24567 -10.24355 -10.24213
 Alpha  occ. eigenvalues --  -10.24148 -10.23938 -10.23463 -10.23347 -10.23022
 Alpha  occ. eigenvalues --  -10.22973 -10.22958 -10.22654 -10.22237 -10.21520
 Alpha  occ. eigenvalues --  -10.21405 -10.21090 -10.20895 -10.20544 -10.20427
 Alpha  occ. eigenvalues --  -10.18341 -10.17523  -1.22092  -1.20392  -1.15545
 Alpha  occ. eigenvalues --   -1.14464  -1.13402  -1.13267  -1.12118  -1.11569
 Alpha  occ. eigenvalues --   -1.11036  -1.10781  -1.10132  -1.09363  -1.08836
 Alpha  occ. eigenvalues --   -1.08165  -1.07751  -1.07517  -1.07266  -1.07200
 Alpha  occ. eigenvalues --   -1.02729  -1.02725  -1.01812  -1.00003  -0.99680
 Alpha  occ. eigenvalues --   -0.99453  -0.98277  -0.98078  -0.97587  -0.97036
 Alpha  occ. eigenvalues --   -0.96887  -0.96056  -0.95469  -0.95275  -0.93726
 Alpha  occ. eigenvalues --   -0.93566  -0.91977  -0.91270  -0.89547  -0.87603
 Alpha  occ. eigenvalues --   -0.86836  -0.85724  -0.85322  -0.84711  -0.84516
 Alpha  occ. eigenvalues --   -0.84005  -0.83388  -0.82765  -0.82505  -0.82475
 Alpha  occ. eigenvalues --   -0.82091  -0.81416  -0.81105  -0.80476  -0.79866
 Alpha  occ. eigenvalues --   -0.78574  -0.78366  -0.77728  -0.77512  -0.76378
 Alpha  occ. eigenvalues --   -0.75745  -0.75632  -0.75350  -0.74237  -0.73974
 Alpha  occ. eigenvalues --   -0.72805  -0.72067  -0.71945  -0.71682  -0.71429
 Alpha  occ. eigenvalues --   -0.70805  -0.70582  -0.70004  -0.69267  -0.69103
 Alpha  occ. eigenvalues --   -0.68949  -0.68676  -0.68558  -0.68102  -0.67975
 Alpha  occ. eigenvalues --   -0.67139  -0.66919  -0.66637  -0.66265  -0.65691
 Alpha  occ. eigenvalues --   -0.65133  -0.65037  -0.64813  -0.64599  -0.64218
 Alpha  occ. eigenvalues --   -0.63961  -0.63846  -0.63421  -0.63327  -0.62995
 Alpha  occ. eigenvalues --   -0.62423  -0.61967  -0.61904  -0.61624  -0.61108
 Alpha  occ. eigenvalues --   -0.60668  -0.60652  -0.60615  -0.59873  -0.59740
 Alpha  occ. eigenvalues --   -0.59557  -0.59386  -0.59109  -0.58824  -0.58199
 Alpha  occ. eigenvalues --   -0.57809  -0.57534  -0.57469  -0.57266  -0.57132
 Alpha  occ. eigenvalues --   -0.56899  -0.56732  -0.56081  -0.55996  -0.55861
 Alpha  occ. eigenvalues --   -0.55841  -0.55479  -0.55104  -0.54955  -0.54666
 Alpha  occ. eigenvalues --   -0.54447  -0.54171  -0.54090  -0.53984  -0.53785
 Alpha  occ. eigenvalues --   -0.53128  -0.53012  -0.52924  -0.52824  -0.52735
 Alpha  occ. eigenvalues --   -0.52462  -0.52328  -0.52188  -0.51873  -0.51680
 Alpha  occ. eigenvalues --   -0.51417  -0.51377  -0.51049  -0.51005  -0.50913
 Alpha  occ. eigenvalues --   -0.50653  -0.50573  -0.50147  -0.49929  -0.49903
 Alpha  occ. eigenvalues --   -0.49850  -0.49558  -0.49428  -0.48679  -0.48480
 Alpha  occ. eigenvalues --   -0.48430  -0.48380  -0.48192  -0.48036  -0.47703
 Alpha  occ. eigenvalues --   -0.47592  -0.47496  -0.47441  -0.47206  -0.47045
 Alpha  occ. eigenvalues --   -0.46966  -0.46900  -0.46664  -0.46603  -0.46443
 Alpha  occ. eigenvalues --   -0.46370  -0.45736  -0.45688  -0.45657  -0.45417
 Alpha  occ. eigenvalues --   -0.45366  -0.45056  -0.44991  -0.44833  -0.44523
 Alpha  occ. eigenvalues --   -0.44458  -0.44241  -0.44162  -0.44052  -0.43881
 Alpha  occ. eigenvalues --   -0.43825  -0.43730  -0.43669  -0.43635  -0.43588
 Alpha  occ. eigenvalues --   -0.43395  -0.43213  -0.43163  -0.42810  -0.42790
 Alpha  occ. eigenvalues --   -0.42539  -0.42463  -0.42391  -0.42213  -0.42093
 Alpha  occ. eigenvalues --   -0.42054  -0.41954  -0.41721  -0.41561  -0.41443
 Alpha  occ. eigenvalues --   -0.41301  -0.41200  -0.41084  -0.41029  -0.40947
 Alpha  occ. eigenvalues --   -0.40658  -0.40458  -0.40282  -0.40155  -0.39999
 Alpha  occ. eigenvalues --   -0.39773  -0.39755  -0.39500  -0.39423  -0.39250
 Alpha  occ. eigenvalues --   -0.38997  -0.38902  -0.38744  -0.38376  -0.37861
 Alpha  occ. eigenvalues --   -0.37534  -0.37251  -0.36918  -0.36917  -0.36849
 Alpha  occ. eigenvalues --   -0.36169  -0.35899  -0.34862  -0.34591  -0.34466
 Alpha  occ. eigenvalues --   -0.34060  -0.33957  -0.33654  -0.33616  -0.33449
 Alpha  occ. eigenvalues --   -0.33234  -0.33145  -0.32957  -0.32939  -0.32673
 Alpha  occ. eigenvalues --   -0.32520  -0.32362  -0.32060  -0.31484  -0.31029
 Alpha  occ. eigenvalues --   -0.30720  -0.30573  -0.30195  -0.30024  -0.29762
 Alpha  occ. eigenvalues --   -0.29380  -0.29281  -0.29269  -0.28879  -0.28717
 Alpha  occ. eigenvalues --   -0.27914  -0.27409  -0.24813  -0.24106  -0.23438
 Alpha  occ. eigenvalues --   -0.23071
 Alpha virt. eigenvalues --   -0.13763  -0.12283  -0.12019  -0.08923  -0.08161
 Alpha virt. eigenvalues --   -0.07011  -0.06997  -0.06883  -0.06640  -0.06227
 Alpha virt. eigenvalues --   -0.05909  -0.05448  -0.05205  -0.04677  -0.04549

 Mulliken charges:
               1
     1  N   -0.751244
     2  H    0.422815
     3  H    0.434497
     4  H    0.420130
     5  C   -0.118514
     6  H    0.234047
     7  C    0.628725
     8  C   -0.362473
     9  H    0.215981
    10  H    0.208657
    11  O   -0.530553
    12  C    0.578112
    13  O   -0.419370
    14  O   -0.584602
    15  N   -0.584798
    16  H    0.376128
    17  C   -0.075672
    18  H    0.199765
    19  C    0.656601
    20  C   -0.347541
    21  H    0.166418
    22  H    0.173588
    23  O   -0.607703
    24  C    0.145228
    25  C   -0.188668
    26  H    0.141524
    27  C   -0.215569
    28  H    0.135533
    29  C   -0.161080
    30  H    0.160876
    31  C   -0.168997
    32  H    0.138451
    33  O   -0.634392
    34  H    0.418355
    35  C    0.377368
    36  N   -0.587645
    37  H    0.374897
    38  C   -0.051603
    39  H    0.179710
    40  C    0.627798
    41  C   -0.353931
    42  H    0.163945
    43  H    0.173106
    44  O   -0.559947
    45  C    0.151946
    46  C   -0.191448
    47  H    0.139224
    48  C   -0.206111
    49  H    0.131516
    50  C   -0.168086
    51  H    0.148044
    52  C   -0.168270
    53  H    0.136260
    54  O   -0.645543
    55  H    0.417386
    56  C    0.371903
    57  N   -0.604244
    58  H    0.367259
    59  C   -0.046440
    60  H    0.176192
    61  C    0.644324
    62  C   -0.374458
    63  H    0.209804
    64  H    0.158319
    65  O   -0.577776
    66  C    0.144962
    67  C   -0.188962
    68  H    0.158352
    69  C   -0.220781
    70  H    0.129883
    71  C   -0.121435
    72  H    0.152261
    73  C   -0.132198
    74  H    0.140133
    75  C   -0.132576
    76  H    0.144788
    77  N   -0.594907
    78  H    0.354743
    79  C   -0.080223
    80  H    0.201718
    81  C    0.638133
    82  C   -0.463608
    83  H    0.175580
    84  H    0.155076
    85  H    0.170139
    86  O   -0.553059
    87  N   -0.631273
    88  H    0.381370
    89  C   -0.049447
    90  H    0.168158
    91  C    0.639377
    92  C   -0.293244
    93  H    0.123938
    94  H    0.167154
    95  O   -0.550173
    96  C   -0.079191
    97  H    0.144568
    98  C   -0.464074
    99  H    0.115815
   100  H    0.209020
   101  H    0.115032
   102  C   -0.473261
   103  H    0.115391
   104  H    0.205150
   105  H    0.144297
   106  N   -0.611754
   107  H    0.373342
   108  C   -0.056834
   109  H    0.186011
   110  C    0.637654
   111  C   -0.466994
   112  H    0.169834
   113  H    0.168912
   114  H    0.162590
   115  O   -0.589202
   116  N   -0.587297
   117  H    0.405886
   118  C   -0.087175
   119  H    0.184219
   120  C    0.651249
   121  C   -0.445125
   122  H    0.228566
   123  H    0.197287
   124  O   -0.541141
   125  C    0.313602
   126  C   -0.100603
   127  H    0.158817
   128  N   -0.635239
   129  H    0.379512
   130  C    0.198917
   131  H    0.149455
   132  N   -0.436526
   133  N   -0.643271
   134  H    0.372846
   135  C   -0.083979
   136  H    0.192142
   137  C    0.556347
   138  C    0.163823
   139  H    0.098390
   140  O   -0.499018
   141  C   -0.456238
   142  H    0.157395
   143  H    0.165396
   144  H    0.173865
   145  O   -0.669106
   146  H    0.436760
   147  N   -0.582088
   148  H    0.341919
   149  C   -0.055622
   150  H    0.187332
   151  C    0.602381
   152  C   -0.079965
   153  H    0.138964
   154  O   -0.603339
   155  C   -0.461710
   156  H    0.151329
   157  H    0.161349
   158  H    0.155069
   159  C   -0.448448
   160  H    0.151602
   161  H    0.151201
   162  H    0.152649
   163  N   -0.615722
   164  H    0.371631
   165  C   -0.055352
   166  H    0.160591
   167  C    0.606701
   168  C   -0.276015
   169  H    0.103663
   170  H    0.185561
   171  O   -0.582776
   172  C   -0.309420
   173  H    0.177705
   174  H    0.152258
   175  C   -0.149062
   176  H    0.177801
   177  H    0.169110
   178  N   -0.608202
   179  H    0.403879
   180  N   -0.790697
   181  H    0.355197
   182  H    0.427822
   183  N   -0.789463
   184  H    0.396952
   185  H    0.382084
   186  C    0.721399
   187  O   -0.602101
   188  H    0.466142
 Sum of Mulliken charges =   1.00000

 Dipole moment (field-independent basis, Debye):
    X=            -32.8889    Y=            -13.8857    Z=            -26.4444  Tot=             44.4274
 Quadrupole moment (field-independent basis, Debye-Ang):
   XX=            -75.5591   YY=           -335.4857   ZZ=           -372.7044
   XY=            304.0977   XZ=            291.0151   YZ=            156.8634

 Normal termination of Gaussian 16 at Wed Aug 10 04:01:28 2022.
