 Gaussian 16, Revision C.01,
 Gaussian 16:  ES64L-G16RevC.01  3-Jul-2019

 ----------------------------------------------------------------------
 # B3LYP/6-31G* empiricaldispersion=gd3bj guess=read geom=check nosymm
 integral(ultrafinegrid)
 ----------------------------------------------------------------------

 ------------------------------------------------------
 Candidate Structure: Conf:232 Charge calc in gas phase
 ------------------------------------------------------
 Structure from the checkpoint file:  "conf-232.chk"
 Charge =  1 Multiplicity = 1

                          Input orientation:
 ---------------------------------------------------------------------
 Center     Atomic      Atomic             Coordinates (Angstroms)
 Number     Number       Type             X           Y           Z
 ---------------------------------------------------------------------
      1          7           0       -6.771092   -9.057394   -8.390279
      2          1           0       -6.986281   -8.172487   -8.914329
      3          1           0       -5.773176   -9.304229   -8.570414
      4          1           0       -7.397473   -9.821640   -8.650030
      5          6           0       -6.870173   -8.631532   -6.948364
      6          1           0       -7.907207   -8.769823   -6.626268
      7          6           0       -6.638360   -7.098532   -7.023422
      8          6           0       -5.924544   -9.433751   -6.049618
      9          1           0       -6.003477   -9.093545   -5.014918
     10          1           0       -6.218316  -10.491569   -6.039934
     11          8           0       -6.827711   -6.550770   -8.116533
     12          6           0       -4.485969   -9.358435   -6.525157
     13          8           0       -4.178852   -9.305985   -7.707985
     14          8           0       -3.609345   -9.386878   -5.531392
     15          7           0       -6.306341   -6.502814   -5.887832
     16          1           0       -6.224213   -7.006918   -5.000735
     17          6           0       -6.394947   -5.070215   -5.636738
     18          1           0       -5.668612   -4.535631   -6.257370
     19          6           0       -6.006853   -4.942079   -4.148789
     20          6           0       -7.824281   -4.516553   -5.921492
     21          1           0       -7.931961   -4.408290   -7.003149
     22          1           0       -7.889836   -3.512741   -5.487840
     23          8           0       -5.900068   -5.957396   -3.447629
     24          6           0       -8.901376   -5.425433   -5.381296
     25          6           0       -9.588160   -6.296721   -6.238859
     26          1           0       -9.403266   -6.239788   -7.308363
     27          6           0       -9.185211   -5.492601   -4.012596
     28          1           0       -8.684166   -4.819716   -3.322851
     29          6           0      -10.507670   -7.222630   -5.753083
     30          1           0      -11.060449   -7.877534   -6.419409
     31          6           0      -10.105284   -6.409749   -3.509875
     32          1           0      -10.312727   -6.442797   -2.442696
     33          8           0      -11.665360   -8.215851   -3.954918
     34          1           0      -11.808892   -8.118632   -3.000333
     35          6           0      -10.765329   -7.286000   -4.378365
     36          7           0       -5.830256   -3.697080   -3.701210
     37          1           0       -5.980607   -2.872569   -4.280495
     38          6           0       -5.532442   -3.384996   -2.314342
     39          1           0       -6.203563   -3.961887   -1.668831
     40          6           0       -5.817108   -1.882810   -2.169815
     41          6           0       -4.062262   -3.737011   -1.943605
     42          1           0       -3.399020   -2.993375   -2.394061
     43          1           0       -3.851952   -4.706870   -2.404642
     44          8           0       -6.101003   -1.198179   -3.151839
     45          6           0       -3.835597   -3.821929   -0.452182
     46          6           0       -3.067778   -2.865982    0.231116
     47          1           0       -2.622397   -2.048826   -0.326336
     48          6           0       -4.418297   -4.856817    0.291136
     49          1           0       -5.004092   -5.617347   -0.220826
     50          6           0       -2.895617   -2.932440    1.610281
     51          1           0       -2.292217   -2.202448    2.135966
     52          6           0       -4.252935   -4.935833    1.672080
     53          1           0       -4.710573   -5.748626    2.232243
     54          8           0       -3.291592   -3.979330    3.685251
     55          1           0       -3.719607   -4.760054    4.069905
     56          6           0       -3.489839   -3.969181    2.337784
     57          7           0       -5.723107   -1.383637   -0.913788
     58          1           0       -5.265629   -1.975742   -0.228124
     59          6           0       -5.554567    0.046420   -0.727737
     60          1           0       -6.415362    0.556409   -1.168816
     61          6           0       -4.275667    0.523000   -1.453475
     62          6           0       -5.493819    0.347704    0.790296
     63          1           0       -6.426882   -0.021897    1.231813
     64          1           0       -4.673414   -0.233048    1.228573
     65          8           0       -3.355842   -0.260259   -1.718199
     66          6           0       -5.298771    1.817682    1.074535
     67          6           0       -4.074887    2.294685    1.553614
     68          1           0       -3.290640    1.589042    1.808216
     69          6           0       -6.304288    2.740602    0.754082
     70          1           0       -7.269234    2.384754    0.398808
     71          6           0       -3.841209    3.663667    1.679527
     72          1           0       -2.876779    4.016753    2.028832
     73          6           0       -6.073937    4.112009    0.877665
     74          1           0       -6.860123    4.816632    0.622093
     75          6           0       -4.837017    4.576252    1.330662
     76          1           0       -4.651893    5.642520    1.414825
     77          7           0       -4.235717    1.836949   -1.749468
     78          1           0       -4.951781    2.437982   -1.357518
     79          6           0       -3.054111    2.502118   -2.308590
     80          1           0       -2.628625    1.809430   -3.041684
     81          6           0       -2.004547    2.744091   -1.200374
     82          6           0       -3.467608    3.808769   -2.970263
     83          1           0       -2.597128    4.298580   -3.412302
     84          1           0       -4.208036    3.619561   -3.752850
     85          1           0       -3.884870    4.495847   -2.227813
     86          8           0       -1.735375    3.874595   -0.790766
     87          7           0       -1.437964    1.616768   -0.712733
     88          1           0       -1.741765    0.723131   -1.091203
     89          6           0       -0.571295    1.649817    0.461768
     90          1           0       -0.931238    2.477904    1.078652
     91          6           0        0.879403    1.981180    0.066813
     92          6           0       -0.652810    0.343595    1.250249
     93          1           0       -1.715848    0.135253    1.439495
     94          1           0       -0.265181   -0.473813    0.630490
     95          8           0        1.781047    1.147868    0.100009
     96          6           0        0.111994    0.360051    2.590411
     97          1           0        1.179634    0.376353    2.354177
     98          6           0       -0.206791    1.596337    3.443463
     99          1           0       -1.289525    1.709017    3.597244
    100          1           0        0.253403    1.501234    4.433485
    101          1           0        0.179589    2.519552    2.998728
    102          6           0       -0.169565   -0.928892    3.369550
    103          1           0       -1.215813   -0.974038    3.701558
    104          1           0        0.460782   -0.987727    4.263242
    105          1           0        0.035633   -1.817736    2.761879
    106          7           0        1.090231    3.274442   -0.287128
    107          1           0        0.303480    3.912200   -0.206678
    108          6           0        2.441169    3.807704   -0.224244
    109          1           0        3.088947    3.173689   -0.836890
    110          6           0        2.900483    3.761689    1.247311
    111          6           0        2.463291    5.249314   -0.730853
    112          1           0        3.483638    5.643852   -0.713886
    113          1           0        1.841455    5.881649   -0.088529
    114          1           0        2.084482    5.300457   -1.756132
    115          8           0        2.158624    4.143038    2.152070
    116          7           0        4.156887    3.313895    1.467494
    117          1           0        4.720512    2.905276    0.731868
    118          6           0        4.686835    3.200367    2.806916
    119          1           0        4.469715    4.130959    3.344193
    120          6           0        6.190305    2.975374    2.693366
    121          6           0        4.036522    2.027868    3.604413
    122          1           0        2.955647    2.164820    3.518847
    123          1           0        4.285424    2.150142    4.665132
    124          8           0        6.729530    2.721294    1.614727
    125          6           0        4.435450    0.663396    3.140747
    126          6           0        4.022481   -0.118768    2.082196
    127          1           0        3.284132    0.126990    1.332030
    128          7           0        5.396390   -0.100770    3.787722
    129          1           0        6.020403    0.194851    4.529563
    130          6           0        5.510256   -1.277345    3.106112
    131          1           0        6.176453   -2.064427    3.431047
    132          7           0        4.694144   -1.325968    2.071845
    133          7           0        6.861491    2.966687    3.870972
    134          1           0        6.477968    3.427865    4.687325
    135          6           0        8.270991    2.608418    3.933537
    136          1           0        8.817754    3.161929    3.158847
    137          6           0        8.410796    1.092458    3.690139
    138          6           0        8.827624    2.950133    5.327392
    139          1           0        8.411964    2.222517    6.028382
    140          8           0        8.290514    0.283224    4.619591
    141          6           0       10.349188    2.870520    5.345973
    142          1           0       10.692538    1.883822    5.017861
    143          1           0       10.786907    3.618397    4.671322
    144          1           0       10.723034    3.056164    6.356776
    145          8           0        8.334112    4.213958    5.772513
    146          1           0        8.778217    4.906384    5.255389
    147          7           0        8.654433    0.734458    2.423197
    148          1           0        8.550388    1.438742    1.704417
    149          6           0        8.866594   -0.656086    2.051912
    150          1           0        8.015418   -1.245116    2.407717
    151          6           0       10.148875   -1.122988    2.760733
    152          6           0        8.946955   -0.790615    0.520595
    153          1           0        9.752229   -0.122715    0.183345
    154          8           0       11.188198   -0.468678    2.701130
    155          6           0        9.314475   -2.225227    0.124091
    156          1           0        8.567230   -2.936905    0.496020
    157          1           0       10.290623   -2.521471    0.519345
    158          1           0        9.347128   -2.317709   -0.966452
    159          6           0        7.617316   -0.373105   -0.127632
    160          1           0        6.800353   -1.020180    0.212344
    161          1           0        7.688954   -0.454493   -1.217959
    162          1           0        7.330440    0.655684    0.112493
    163          7           0       10.031679   -2.290478    3.431277
    164          1           0        9.117146   -2.689407    3.610062
    165          6           0       11.067414   -2.756318    4.337499
    166          1           0       12.019440   -2.734063    3.805956
    167          6           0       10.691122   -4.189891    4.727061
    168          6           0       11.143594   -1.861855    5.623283
    169          1           0       10.239085   -1.247912    5.622332
    170          1           0       11.078329   -2.490839    6.521572
    171          8           0       11.689931   -5.032525    4.973113
    172          6           0       12.388039   -0.956973    5.709035
    173          1           0       12.116236   -0.005078    6.184020
    174          1           0       12.728975   -0.712508    4.698502
    175          6           0       13.533690   -1.563581    6.530625
    176          1           0       13.234834   -1.661964    7.579847
    177          1           0       14.402822   -0.898536    6.516260
    178          7           0       13.947186   -2.906152    6.101487
    179          1           0       13.275130   -3.630432    6.331139
    180          7           0       15.432574   -2.211870    4.449679
    181          1           0       15.927944   -2.424567    3.595183
    182          1           0       16.012304   -1.805555    5.172337
    183          7           0       14.071467   -4.146338    4.163692
    184          1           0       14.621462   -4.328044    3.327362
    185          1           0       12.586061   -4.722853    4.586879
    186          6           0       14.491422   -3.133075    4.856300
    187          8           0        9.523598   -4.499790    4.870639
    188          1           0       -2.706487   -9.375701   -5.909046
 ---------------------------------------------------------------------

 SCF Done:  E(RB3LYP) =  -4648.91532361     A.U. after    3 cycles

 Alpha  occ. eigenvalues --  -19.34031 -19.29221 -19.26183 -19.25990 -19.23675
 Alpha  occ. eigenvalues --  -19.22109 -19.19910 -19.19813 -19.18912 -19.18228
 Alpha  occ. eigenvalues --  -19.17368 -19.16875 -19.15669 -19.15279 -19.14727
 Alpha  occ. eigenvalues --  -19.14111 -19.13434 -14.58385 -14.48627 -14.45257
 Alpha  occ. eigenvalues --  -14.43074 -14.42832 -14.41236 -14.40529 -14.40281
 Alpha  occ. eigenvalues --  -14.40099 -14.39519 -14.39491 -14.38728 -14.38586
 Alpha  occ. eigenvalues --  -14.37735 -14.34477 -14.32593 -10.47458 -10.43032
 Alpha  occ. eigenvalues --  -10.40967 -10.38871 -10.36580 -10.36321 -10.35650
 Alpha  occ. eigenvalues --  -10.34469 -10.33986 -10.33696 -10.33695 -10.33585
 Alpha  occ. eigenvalues --  -10.32548 -10.32541 -10.31873 -10.31792 -10.31613
 Alpha  occ. eigenvalues --  -10.31087 -10.30681 -10.30492 -10.29162 -10.28990
 Alpha  occ. eigenvalues --  -10.28421 -10.28013 -10.27954 -10.27899 -10.27774
 Alpha  occ. eigenvalues --  -10.27664 -10.27611 -10.27413 -10.27053 -10.26872
 Alpha  occ. eigenvalues --  -10.26586 -10.26174 -10.25766 -10.25766 -10.25597
 Alpha  occ. eigenvalues --  -10.25587 -10.25468 -10.25288 -10.25245 -10.25245
 Alpha  occ. eigenvalues --  -10.24864 -10.24829 -10.24809 -10.24393 -10.24348
 Alpha  occ. eigenvalues --  -10.24299 -10.24297 -10.23587 -10.23514 -10.23297
 Alpha  occ. eigenvalues --  -10.22629 -10.22331 -10.22290 -10.21942 -10.21782
 Alpha  occ. eigenvalues --  -10.21397 -10.21038 -10.20520 -10.20354 -10.20253
 Alpha  occ. eigenvalues --  -10.19933 -10.19265  -1.25508  -1.18613  -1.16631
 Alpha  occ. eigenvalues --   -1.14359  -1.14102  -1.12731  -1.12024  -1.11841
 Alpha  occ. eigenvalues --   -1.10457  -1.09749  -1.09410  -1.08569  -1.07605
 Alpha  occ. eigenvalues --   -1.07378  -1.06990  -1.06346  -1.05782  -1.05237
 Alpha  occ. eigenvalues --   -1.02917  -1.02454  -1.02102  -1.01659  -1.00291
 Alpha  occ. eigenvalues --   -0.99394  -0.97634  -0.97207  -0.96304  -0.96094
 Alpha  occ. eigenvalues --   -0.95555  -0.95086  -0.94536  -0.94200  -0.93454
 Alpha  occ. eigenvalues --   -0.91872  -0.91573  -0.89640  -0.89218  -0.88152
 Alpha  occ. eigenvalues --   -0.86884  -0.85263  -0.84993  -0.84814  -0.84246
 Alpha  occ. eigenvalues --   -0.83615  -0.83218  -0.82751  -0.82493  -0.81729
 Alpha  occ. eigenvalues --   -0.81556  -0.80970  -0.80596  -0.80352  -0.80121
 Alpha  occ. eigenvalues --   -0.78555  -0.77947  -0.77057  -0.76783  -0.76531
 Alpha  occ. eigenvalues --   -0.76064  -0.74731  -0.74070  -0.73725  -0.72653
 Alpha  occ. eigenvalues --   -0.72614  -0.71625  -0.71442  -0.70974  -0.70820
 Alpha  occ. eigenvalues --   -0.70798  -0.70312  -0.69882  -0.69819  -0.69241
 Alpha  occ. eigenvalues --   -0.68516  -0.68274  -0.67692  -0.67030  -0.66588
 Alpha  occ. eigenvalues --   -0.66545  -0.66404  -0.66186  -0.65780  -0.65376
 Alpha  occ. eigenvalues --   -0.64965  -0.64754  -0.64034  -0.63642  -0.63409
 Alpha  occ. eigenvalues --   -0.63200  -0.63102  -0.62671  -0.62599  -0.62154
 Alpha  occ. eigenvalues --   -0.62083  -0.61887  -0.61421  -0.61300  -0.61113
 Alpha  occ. eigenvalues --   -0.60495  -0.60312  -0.60145  -0.60053  -0.59860
 Alpha  occ. eigenvalues --   -0.59546  -0.59432  -0.58793  -0.58315  -0.58268
 Alpha  occ. eigenvalues --   -0.57604  -0.57287  -0.57032  -0.56820  -0.56617
 Alpha  occ. eigenvalues --   -0.56270  -0.56040  -0.55976  -0.55700  -0.55463
 Alpha  occ. eigenvalues --   -0.55379  -0.55115  -0.54883  -0.54531  -0.54308
 Alpha  occ. eigenvalues --   -0.53955  -0.53829  -0.53566  -0.53301  -0.53109
 Alpha  occ. eigenvalues --   -0.52906  -0.52718  -0.52579  -0.52421  -0.52257
 Alpha  occ. eigenvalues --   -0.51920  -0.51642  -0.51579  -0.51372  -0.51147
 Alpha  occ. eigenvalues --   -0.50954  -0.50852  -0.50690  -0.50450  -0.50395
 Alpha  occ. eigenvalues --   -0.50366  -0.49999  -0.49661  -0.49445  -0.49269
 Alpha  occ. eigenvalues --   -0.49096  -0.49015  -0.48685  -0.48601  -0.48213
 Alpha  occ. eigenvalues --   -0.48176  -0.48064  -0.47901  -0.47655  -0.47567
 Alpha  occ. eigenvalues --   -0.47398  -0.47213  -0.47063  -0.46990  -0.46926
 Alpha  occ. eigenvalues --   -0.46594  -0.46525  -0.46373  -0.46309  -0.46251
 Alpha  occ. eigenvalues --   -0.46183  -0.45868  -0.45558  -0.45486  -0.45337
 Alpha  occ. eigenvalues --   -0.45147  -0.44846  -0.44714  -0.44485  -0.44444
 Alpha  occ. eigenvalues --   -0.44305  -0.44287  -0.44103  -0.44005  -0.43865
 Alpha  occ. eigenvalues --   -0.43641  -0.43493  -0.43392  -0.43333  -0.43171
 Alpha  occ. eigenvalues --   -0.43094  -0.43000  -0.42810  -0.42486  -0.42430
 Alpha  occ. eigenvalues --   -0.42276  -0.42254  -0.42195  -0.41702  -0.41663
 Alpha  occ. eigenvalues --   -0.41653  -0.41606  -0.41445  -0.41405  -0.41265
 Alpha  occ. eigenvalues --   -0.41158  -0.40978  -0.40757  -0.40567  -0.40494
 Alpha  occ. eigenvalues --   -0.40404  -0.40381  -0.40137  -0.39897  -0.39759
 Alpha  occ. eigenvalues --   -0.39657  -0.39519  -0.39391  -0.39216  -0.38960
 Alpha  occ. eigenvalues --   -0.38666  -0.38640  -0.38408  -0.37996  -0.37364
 Alpha  occ. eigenvalues --   -0.37073  -0.36435  -0.36299  -0.36256  -0.36179
 Alpha  occ. eigenvalues --   -0.36068  -0.35730  -0.35405  -0.35340  -0.35313
 Alpha  occ. eigenvalues --   -0.34383  -0.34192  -0.34051  -0.33545  -0.33060
 Alpha  occ. eigenvalues --   -0.32404  -0.32196  -0.31980  -0.31781  -0.31622
 Alpha  occ. eigenvalues --   -0.31540  -0.31323  -0.30767  -0.30520  -0.30322
 Alpha  occ. eigenvalues --   -0.30061  -0.29972  -0.29868  -0.29592  -0.29549
 Alpha  occ. eigenvalues --   -0.29007  -0.28792  -0.28364  -0.28133  -0.27938
 Alpha  occ. eigenvalues --   -0.27928  -0.27613  -0.27372  -0.27123  -0.26437
 Alpha  occ. eigenvalues --   -0.23781
 Alpha virt. eigenvalues --   -0.14118  -0.12329  -0.09343  -0.08602  -0.08044
 Alpha virt. eigenvalues --   -0.07435  -0.06740  -0.06418  -0.06053  -0.05840
 Alpha virt. eigenvalues --   -0.05262  -0.04705  -0.04558  -0.03748  -0.03403

 Mulliken charges:
               1
     1  N   -0.760118
     2  H    0.428943
     3  H    0.437442
     4  H    0.406815
     5  C   -0.134551
     6  H    0.241641
     7  C    0.681282
     8  C   -0.403917
     9  H    0.240458
    10  H    0.225214
    11  O   -0.545778
    12  C    0.628711
    13  O   -0.479278
    14  O   -0.522663
    15  N   -0.630774
    16  H    0.381292
    17  C   -0.036848
    18  H    0.198495
    19  C    0.641386
    20  C   -0.393897
    21  H    0.191828
    22  H    0.182927
    23  O   -0.563549
    24  C    0.158430
    25  C   -0.219377
    26  H    0.142377
    27  C   -0.179249
    28  H    0.147781
    29  C   -0.178528
    30  H    0.146731
    31  C   -0.192424
    32  H    0.139558
    33  O   -0.633018
    34  H    0.418082
    35  C    0.354602
    36  N   -0.628989
    37  H    0.367793
    38  C   -0.058051
    39  H    0.183108
    40  C    0.631870
    41  C   -0.352842
    42  H    0.185801
    43  H    0.176452
    44  O   -0.540227
    45  C    0.102250
    46  C   -0.232278
    47  H    0.177899
    48  C   -0.188220
    49  H    0.141276
    50  C   -0.162807
    51  H    0.168508
    52  C   -0.190617
    53  H    0.128321
    54  O   -0.631763
    55  H    0.413055
    56  C    0.348501
    57  N   -0.609483
    58  H    0.360837
    59  C   -0.056981
    60  H    0.183158
    61  C    0.649925
    62  C   -0.386176
    63  H    0.175364
    64  H    0.169019
    65  O   -0.566869
    66  C    0.148330
    67  C   -0.189148
    68  H    0.150144
    69  C   -0.218055
    70  H    0.132723
    71  C   -0.117859
    72  H    0.160212
    73  C   -0.130726
    74  H    0.144617
    75  C   -0.130116
    76  H    0.149624
    77  N   -0.585728
    78  H    0.354394
    79  C   -0.065738
    80  H    0.183669
    81  C    0.642684
    82  C   -0.462074
    83  H    0.175905
    84  H    0.155676
    85  H    0.172925
    86  O   -0.547621
    87  N   -0.630442
    88  H    0.374084
    89  C   -0.063499
    90  H    0.179903
    91  C    0.639417
    92  C   -0.299623
    93  H    0.127441
    94  H    0.158804
    95  O   -0.526597
    96  C   -0.090112
    97  H    0.176778
    98  C   -0.481832
    99  H    0.128456
   100  H    0.147244
   101  H    0.179806
   102  C   -0.452101
   103  H    0.135983
   104  H    0.152040
   105  H    0.150497
   106  N   -0.598115
   107  H    0.366399
   108  C   -0.035940
   109  H    0.162953
   110  C    0.634861
   111  C   -0.473740
   112  H    0.162933
   113  H    0.173243
   114  H    0.165442
   115  O   -0.551588
   116  N   -0.603613
   117  H    0.358102
   118  C   -0.039008
   119  H    0.176105
   120  C    0.634852
   121  C   -0.372927
   122  H    0.209752
   123  H    0.141913
   124  O   -0.544068
   125  C    0.297692
   126  C   -0.113329
   127  H    0.196085
   128  N   -0.605730
   129  H    0.348959
   130  C    0.196594
   131  H    0.161012
   132  N   -0.439054
   133  N   -0.625568
   134  H    0.352087
   135  C   -0.056405
   136  H    0.153358
   137  C    0.654895
   138  C    0.107690
   139  H    0.176312
   140  O   -0.578498
   141  C   -0.487486
   142  H    0.194254
   143  H    0.139253
   144  H    0.167641
   145  O   -0.629028
   146  H    0.392953
   147  N   -0.595218
   148  H    0.362447
   149  C   -0.006594
   150  H    0.150917
   151  C    0.635174
   152  C   -0.116871
   153  H    0.142587
   154  O   -0.555553
   155  C   -0.457769
   156  H    0.150429
   157  H    0.161784
   158  H    0.146583
   159  C   -0.479739
   160  H    0.181997
   161  H    0.139667
   162  H    0.160991
   163  N   -0.610375
   164  H    0.349636
   165  C   -0.043289
   166  H    0.179238
   167  C    0.574642
   168  C   -0.309964
   169  H    0.194231
   170  H    0.144327
   171  O   -0.617404
   172  C   -0.277024
   173  H    0.136899
   174  H    0.192160
   175  C   -0.158190
   176  H    0.158551
   177  H    0.144810
   178  N   -0.583653
   179  H    0.337610
   180  N   -0.740278
   181  H    0.337968
   182  H    0.344341
   183  N   -0.736125
   184  H    0.290711
   185  H    0.462870
   186  C    0.663933
   187  O   -0.482016
   188  H    0.446366
 Sum of Mulliken charges =   1.00000

 Dipole moment (field-independent basis, Debye):
    X=            -22.9345    Y=            -28.0435    Z=            -22.7383  Tot=             42.7722
 Quadrupole moment (field-independent basis, Debye-Ang):
   XX=           -145.6391   YY=           -235.0922   ZZ=           -359.5267
   XY=            278.7925   XZ=            199.6570   YZ=            254.4305

 Normal termination of Gaussian 16 at Wed Aug 10 04:00:18 2022.
