 Gaussian 16, Revision C.01,
 Gaussian 16:  ES64L-G16RevC.01  3-Jul-2019

 ----------------------------------------------------------------------
 # B3LYP/6-31G* empiricaldispersion=gd3bj guess=read geom=check nosymm
 integral(ultrafinegrid)
 ----------------------------------------------------------------------

 ------------------------------------------------------
 Candidate Structure: Conf:156 Charge calc in gas phase
 ------------------------------------------------------
 Structure from the checkpoint file:  "conf-156.chk"
 Charge =  1 Multiplicity = 1

                          Input orientation:
 ---------------------------------------------------------------------
 Center     Atomic      Atomic             Coordinates (Angstroms)
 Number     Number       Type             X           Y           Z
 ---------------------------------------------------------------------
      1          7           0       -5.535894   -8.896698  -11.239866
      2          1           0       -6.147425   -9.153404  -12.020429
      3          1           0       -4.941342   -8.059323  -11.531332
      4          1           0       -4.954199   -9.703694  -10.999200
      5          6           0       -6.290660   -8.324766  -10.062402
      6          1           0       -7.339224   -8.617213  -10.122032
      7          6           0       -6.089061   -6.790757  -10.251587
      8          6           0       -5.680523   -8.826391   -8.738951
      9          1           0       -5.848251   -9.904100   -8.639628
     10          1           0       -4.610023   -8.608855   -8.692256
     11          8           0       -5.174145   -6.442019  -11.012589
     12          6           0       -6.430937   -8.085954   -7.633371
     13          8           0       -7.646371   -8.103539   -7.590522
     14          8           0       -5.629263   -7.345848   -6.884770
     15          7           0       -6.894752   -5.986414   -9.563656
     16          1           0       -7.558615   -6.397798   -8.910452
     17          6           0       -6.638088   -4.558056   -9.356624
     18          1           0       -5.824828   -4.266707  -10.022637
     19          6           0       -6.248927   -4.364598   -7.884131
     20          6           0       -7.913000   -3.723995   -9.659509
     21          1           0       -8.749868   -4.180972   -9.119282
     22          1           0       -8.123541   -3.806673  -10.731319
     23          8           0       -6.848717   -5.010055   -7.002563
     24          6           0       -7.737386   -2.287429   -9.229136
     25          6           0       -8.152218   -1.872943   -7.955753
     26          1           0       -8.697933   -2.565351   -7.319939
     27          6           0       -7.031656   -1.379514  -10.024641
     28          1           0       -6.704521   -1.671848  -11.019980
     29          6           0       -7.846094   -0.605200   -7.474086
     30          1           0       -8.153069   -0.288258   -6.483244
     31          6           0       -6.719699   -0.105715   -9.556873
     32          1           0       -6.150433    0.579800  -10.179651
     33          8           0       -6.789916    1.489000   -7.732542
     34          1           0       -6.254201    1.990240   -8.367131
     35          6           0       -7.107328    0.275904   -8.269694
     36          7           0       -5.325821   -3.438910   -7.642065
     37          1           0       -4.961732   -2.841236   -8.386365
     38          6           0       -5.160468   -2.842912   -6.325246
     39          1           0       -6.142534   -2.818751   -5.844545
     40          6           0       -4.675975   -1.412319   -6.595526
     41          6           0       -4.180009   -3.625107   -5.409557
     42          1           0       -3.153123   -3.323639   -5.634856
     43          1           0       -4.278158   -4.685415   -5.667948
     44          8           0       -4.256930   -1.095343   -7.709672
     45          6           0       -4.491176   -3.421365   -3.944012
     46          6           0       -3.650843   -2.674730   -3.105317
     47          1           0       -2.763106   -2.209433   -3.520128
     48          6           0       -5.657078   -3.973135   -3.398175
     49          1           0       -6.325871   -4.549052   -4.034784
     50          6           0       -3.956593   -2.495528   -1.760029
     51          1           0       -3.317430   -1.904439   -1.114458
     52          6           0       -5.975024   -3.797361   -2.053656
     53          1           0       -6.883958   -4.234073   -1.644039
     54          8           0       -5.379908   -2.843362    0.094562
     55          1           0       -6.194620   -3.309642    0.338046
     56          6           0       -5.119173   -3.059543   -1.229465
     57          7           0       -4.784173   -0.567024   -5.551256
     58          1           0       -4.949319   -0.973816   -4.635546
     59          6           0       -4.107322    0.713927   -5.562340
     60          1           0       -4.110172    1.058072   -6.600208
     61          6           0       -2.630262    0.497797   -5.149838
     62          6           0       -4.892557    1.728376   -4.698322
     63          1           0       -4.394122    2.702662   -4.733242
     64          1           0       -5.865505    1.857494   -5.182473
     65          8           0       -2.148390   -0.628882   -5.051369
     66          6           0       -5.070863    1.284448   -3.263793
     67          6           0       -6.168372    0.488974   -2.905006
     68          1           0       -6.910009    0.234171   -3.658937
     69          6           0       -4.137840    1.628619   -2.276435
     70          1           0       -3.299908    2.272100   -2.526957
     71          6           0       -6.323841    0.034545   -1.596365
     72          1           0       -7.174421   -0.589278   -1.338191
     73          6           0       -4.295836    1.175335   -0.966382
     74          1           0       -3.565729    1.451843   -0.212525
     75          6           0       -5.385463    0.374788   -0.622588
     76          1           0       -5.495451    0.003475    0.390813
     77          7           0       -1.912282    1.627056   -4.957683
     78          1           0       -2.374973    2.525010   -4.858626
     79          6           0       -0.598129    1.604532   -4.338714
     80          1           0       -0.500058    0.658108   -3.797687
     81          6           0       -0.576399    2.775752   -3.342855
     82          6           0        0.532484    1.718544   -5.371655
     83          1           0        1.515015    1.708936   -4.888077
     84          1           0        0.474378    0.875418   -6.065440
     85          1           0        0.437259    2.649768   -5.939351
     86          8           0       -1.440676    3.658256   -3.393724
     87          7           0        0.423245    2.741330   -2.445568
     88          1           0        1.201035    2.101040   -2.580303
     89          6           0        0.731154    3.825662   -1.528129
     90          1           0        0.255514    4.734721   -1.907874
     91          6           0        2.264185    3.964183   -1.545430
     92          6           0        0.268122    3.528368   -0.084867
     93          1           0        0.889960    2.720333    0.317667
     94          1           0        0.480569    4.415789    0.525905
     95          8           0        2.967539    3.116222   -2.097077
     96          6           0       -1.212140    3.162249    0.092428
     97          1           0       -1.427626    2.321812   -0.582674
     98          6           0       -1.433876    2.685540    1.535222
     99          1           0       -1.264201    3.508100    2.241768
    100          1           0       -2.462890    2.335837    1.683202
    101          1           0       -0.744305    1.878329    1.802792
    102          6           0       -2.154150    4.321141   -0.254372
    103          1           0       -1.953912    5.184514    0.394028
    104          1           0       -3.199648    4.029304   -0.100526
    105          1           0       -2.048316    4.630446   -1.297191
    106          7           0        2.768766    5.032395   -0.888202
    107          1           0        2.167910    5.641603   -0.344499
    108          6           0        4.187952    5.142471   -0.582551
    109          1           0        4.622879    4.152387   -0.740756
    110          6           0        4.293753    5.559601    0.889627
    111          6           0        4.889738    6.167445   -1.483010
    112          1           0        5.957360    6.223471   -1.244716
    113          1           0        4.448663    7.159020   -1.340952
    114          1           0        4.777299    5.874550   -2.530670
    115          8           0        3.498476    6.365664    1.373150
    116          7           0        5.330451    5.008720    1.557614
    117          1           0        5.842971    4.234565    1.144569
    118          6           0        5.537737    5.124041    2.985623
    119          1           0        5.826022    6.150822    3.245549
    120          6           0        6.691170    4.169050    3.313583
    121          6           0        4.268351    4.760107    3.823139
    122          1           0        3.561908    5.582739    3.705857
    123          1           0        4.556008    4.712719    4.880312
    124          8           0        7.116399    3.359978    2.487822
    125          6           0        3.599736    3.508417    3.374210
    126          6           0        2.462300    3.334025    2.619498
    127          1           0        1.799729    4.106250    2.259138
    128          7           0        4.094244    2.232363    3.572552
    129          1           0        4.925019    1.980192    4.113240
    130          6           0        3.245458    1.369925    2.944427
    131          1           0        3.400817    0.299868    2.953581
    132          7           0        2.243978    1.999952    2.354142
    133          7           0        7.165022    4.227508    4.576484
    134          1           0        6.880910    4.952754    5.222958
    135          6           0        8.121761    3.263223    5.072351
    136          1           0        9.094083    3.406504    4.579316
    137          6           0        7.612712    1.833569    4.818734
    138          6           0        8.265352    3.469709    6.602378
    139          1           0        7.344092    3.099539    7.062567
    140          8           0        6.438497    1.532181    5.054742
    141          6           0        9.474897    2.738838    7.171742
    142          1           0        9.440315    1.667311    6.953255
    143          1           0       10.403657    3.133159    6.737719
    144          1           0        9.515866    2.875452    8.255642
    145          8           0        8.285946    4.861844    6.918678
    146          1           0        9.151853    5.215561    6.654935
    147          7           0        8.544069    0.957109    4.419828
    148          1           0        9.517849    1.229749    4.333268
    149          6           0        8.328913   -0.478287    4.324662
    150          1           0        7.452706   -0.726392    4.931487
    151          6           0        9.599917   -1.109318    4.911506
    152          6           0        8.076834   -0.928883    2.858664
    153          1           0        8.986236   -0.678378    2.293863
    154          8           0       10.681763   -0.508990    4.834125
    155          6           0        7.837238   -2.441788    2.761748
    156          1           0        6.963943   -2.737922    3.357327
    157          1           0        8.686836   -3.037405    3.105039
    158          1           0        7.630958   -2.719182    1.722702
    159          6           0        6.896443   -0.159545    2.252013
    160          1           0        5.975754   -0.366365    2.809972
    161          1           0        6.737896   -0.476773    1.215334
    162          1           0        7.059305    0.920288    2.255265
    163          7           0        9.458678   -2.308849    5.492314
    164          1           0        8.604872   -2.861764    5.412102
    165          6           0       10.598081   -3.119894    5.880731
    166          1           0       11.355084   -3.028616    5.091067
    167          6           0       10.114333   -4.604331    5.880552
    168          6           0       11.229603   -2.638628    7.220688
    169          1           0       10.614454   -1.813690    7.588703
    170          1           0       11.166570   -3.432702    7.975376
    171          8           0       11.023578   -5.472558    6.155237
    172          6           0       12.681770   -2.142070    7.087945
    173          1           0       12.907774   -1.429502    7.890637
    174          1           0       12.775523   -1.596127    6.142669
    175          6           0       13.734297   -3.259234    7.174528
    176          1           0       13.805298   -3.627001    8.204020
    177          1           0       14.725431   -2.874399    6.909793
    178          7           0       13.380735   -4.402122    6.339167
    179          1           0       12.406158   -4.831702    6.485469
    180          7           0       15.134477   -4.392706    4.763592
    181          1           0       15.307811   -4.345490    3.769804
    182          1           0       15.669440   -3.754139    5.332246
    183          7           0       13.149823   -5.539307    4.366136
    184          1           0       13.617877   -6.179527    3.740573
    185          1           0       12.229822   -5.806496    4.746815
    186          6           0       13.892605   -4.756506    5.177726
    187          8           0        8.935377   -4.824348    5.589030
    188          1           0       -6.164969   -6.601813   -6.495491
 ---------------------------------------------------------------------

 SCF Done:  E(RB3LYP) =  -4648.92098298     A.U. after    2 cycles

 Alpha  occ. eigenvalues --  -19.29425 -19.27226 -19.24944 -19.24405 -19.22357
 Alpha  occ. eigenvalues --  -19.21400 -19.20762 -19.17952 -19.17051 -19.16223
 Alpha  occ. eigenvalues --  -19.16186 -19.16082 -19.15276 -19.15230 -19.15097
 Alpha  occ. eigenvalues --  -19.12680 -19.11731 -14.60668 -14.49675 -14.44833
 Alpha  occ. eigenvalues --  -14.44353 -14.42399 -14.41932 -14.41236 -14.41058
 Alpha  occ. eigenvalues --  -14.40325 -14.39812 -14.39717 -14.39334 -14.39323
 Alpha  occ. eigenvalues --  -14.39236 -14.38392 -14.32594 -10.43967 -10.43865
 Alpha  occ. eigenvalues --  -10.41531 -10.39681 -10.38234 -10.34907 -10.34739
 Alpha  occ. eigenvalues --  -10.34005 -10.33771 -10.33526 -10.33090 -10.32997
 Alpha  occ. eigenvalues --  -10.32280 -10.32142 -10.31958 -10.31454 -10.30091
 Alpha  occ. eigenvalues --  -10.29846 -10.29721 -10.29291 -10.28909 -10.28504
 Alpha  occ. eigenvalues --  -10.28439 -10.28308 -10.27958 -10.27453 -10.26645
 Alpha  occ. eigenvalues --  -10.26562 -10.26523 -10.26227 -10.26053 -10.25785
 Alpha  occ. eigenvalues --  -10.25522 -10.25169 -10.25058 -10.25034 -10.24948
 Alpha  occ. eigenvalues --  -10.24151 -10.23879 -10.23742 -10.23642 -10.23548
 Alpha  occ. eigenvalues --  -10.23405 -10.23150 -10.23097 -10.23065 -10.22806
 Alpha  occ. eigenvalues --  -10.22737 -10.22723 -10.22614 -10.22509 -10.22485
 Alpha  occ. eigenvalues --  -10.22301 -10.22266 -10.22193 -10.22111 -10.21445
 Alpha  occ. eigenvalues --  -10.20965 -10.20826 -10.20741 -10.20263 -10.19424
 Alpha  occ. eigenvalues --  -10.18831 -10.18653  -1.21323  -1.19711  -1.14482
 Alpha  occ. eigenvalues --   -1.13102  -1.12482  -1.12403  -1.10366  -1.10006
 Alpha  occ. eigenvalues --   -1.09580  -1.08501  -1.08434  -1.08152  -1.07906
 Alpha  occ. eigenvalues --   -1.07667  -1.07247  -1.06843  -1.06609  -1.06352
 Alpha  occ. eigenvalues --   -1.05338  -1.02023  -1.01162  -0.98446  -0.98336
 Alpha  occ. eigenvalues --   -0.97659  -0.97049  -0.96823  -0.96820  -0.96539
 Alpha  occ. eigenvalues --   -0.96326  -0.96308  -0.95880  -0.94974  -0.94518
 Alpha  occ. eigenvalues --   -0.92617  -0.90130  -0.89316  -0.88521  -0.87793
 Alpha  occ. eigenvalues --   -0.85199  -0.84823  -0.84162  -0.83956  -0.83761
 Alpha  occ. eigenvalues --   -0.83261  -0.83083  -0.82025  -0.81548  -0.81007
 Alpha  occ. eigenvalues --   -0.80970  -0.80124  -0.79177  -0.78765  -0.78489
 Alpha  occ. eigenvalues --   -0.77985  -0.77344  -0.77114  -0.76488  -0.75485
 Alpha  occ. eigenvalues --   -0.75315  -0.74569  -0.74322  -0.73769  -0.72808
 Alpha  occ. eigenvalues --   -0.71799  -0.71438  -0.70829  -0.70759  -0.70460
 Alpha  occ. eigenvalues --   -0.70004  -0.69867  -0.69656  -0.69501  -0.69030
 Alpha  occ. eigenvalues --   -0.68764  -0.67760  -0.67281  -0.66913  -0.66685
 Alpha  occ. eigenvalues --   -0.66382  -0.65930  -0.65372  -0.65121  -0.64864
 Alpha  occ. eigenvalues --   -0.64578  -0.64136  -0.63743  -0.63455  -0.63173
 Alpha  occ. eigenvalues --   -0.63094  -0.62271  -0.61972  -0.61920  -0.61656
 Alpha  occ. eigenvalues --   -0.61528  -0.61444  -0.61287  -0.61039  -0.60937
 Alpha  occ. eigenvalues --   -0.60678  -0.60426  -0.60026  -0.59951  -0.59761
 Alpha  occ. eigenvalues --   -0.58902  -0.58709  -0.58548  -0.58260  -0.58113
 Alpha  occ. eigenvalues --   -0.58031  -0.57426  -0.56355  -0.56166  -0.56015
 Alpha  occ. eigenvalues --   -0.55867  -0.55673  -0.55335  -0.55117  -0.55023
 Alpha  occ. eigenvalues --   -0.54442  -0.54354  -0.54155  -0.54067  -0.53310
 Alpha  occ. eigenvalues --   -0.53154  -0.52998  -0.52532  -0.52298  -0.51984
 Alpha  occ. eigenvalues --   -0.51847  -0.51727  -0.51591  -0.51477  -0.51223
 Alpha  occ. eigenvalues --   -0.51137  -0.50853  -0.50767  -0.50624  -0.50434
 Alpha  occ. eigenvalues --   -0.50378  -0.49852  -0.49818  -0.49593  -0.49502
 Alpha  occ. eigenvalues --   -0.49221  -0.49070  -0.49043  -0.48947  -0.48874
 Alpha  occ. eigenvalues --   -0.48690  -0.48462  -0.48288  -0.48180  -0.47992
 Alpha  occ. eigenvalues --   -0.47838  -0.47679  -0.47361  -0.47279  -0.47234
 Alpha  occ. eigenvalues --   -0.47144  -0.47132  -0.46819  -0.46722  -0.46564
 Alpha  occ. eigenvalues --   -0.46307  -0.45984  -0.45900  -0.45685  -0.45631
 Alpha  occ. eigenvalues --   -0.45528  -0.45408  -0.45261  -0.44905  -0.44659
 Alpha  occ. eigenvalues --   -0.44466  -0.44212  -0.44178  -0.44128  -0.44058
 Alpha  occ. eigenvalues --   -0.43795  -0.43514  -0.43402  -0.43186  -0.43127
 Alpha  occ. eigenvalues --   -0.43101  -0.42881  -0.42705  -0.42627  -0.42514
 Alpha  occ. eigenvalues --   -0.42454  -0.42317  -0.42196  -0.42136  -0.41973
 Alpha  occ. eigenvalues --   -0.41880  -0.41743  -0.41561  -0.41526  -0.41302
 Alpha  occ. eigenvalues --   -0.41115  -0.41059  -0.40885  -0.40748  -0.40559
 Alpha  occ. eigenvalues --   -0.40553  -0.40453  -0.40281  -0.40110  -0.40094
 Alpha  occ. eigenvalues --   -0.40005  -0.39848  -0.39567  -0.39321  -0.39212
 Alpha  occ. eigenvalues --   -0.39037  -0.38918  -0.38799  -0.38714  -0.38327
 Alpha  occ. eigenvalues --   -0.38042  -0.37951  -0.37834  -0.37702  -0.37444
 Alpha  occ. eigenvalues --   -0.37280  -0.37060  -0.36704  -0.36326  -0.36075
 Alpha  occ. eigenvalues --   -0.35499  -0.35276  -0.35001  -0.34620  -0.34547
 Alpha  occ. eigenvalues --   -0.34373  -0.33902  -0.32557  -0.32286  -0.32116
 Alpha  occ. eigenvalues --   -0.31393  -0.31361  -0.31092  -0.30490  -0.30441
 Alpha  occ. eigenvalues --   -0.30391  -0.30027  -0.30014  -0.29889  -0.29528
 Alpha  occ. eigenvalues --   -0.29427  -0.29194  -0.28990  -0.28895  -0.28857
 Alpha  occ. eigenvalues --   -0.28621  -0.28594  -0.28414  -0.28184  -0.28076
 Alpha  occ. eigenvalues --   -0.27976  -0.27672  -0.26902  -0.26182  -0.25845
 Alpha  occ. eigenvalues --   -0.23698
 Alpha virt. eigenvalues --   -0.12998  -0.11859  -0.11183  -0.08194  -0.06929
 Alpha virt. eigenvalues --   -0.06113  -0.05977  -0.05128  -0.04804  -0.04423
 Alpha virt. eigenvalues --   -0.04060  -0.03556  -0.03551  -0.02978  -0.02663

 Mulliken charges:
               1
     1  N   -0.758184
     2  H    0.420754
     3  H    0.436401
     4  H    0.417740
     5  C   -0.120976
     6  H    0.241415
     7  C    0.636670
     8  C   -0.362551
     9  H    0.212225
    10  H    0.209567
    11  O   -0.535346
    12  C    0.581991
    13  O   -0.456062
    14  O   -0.554840
    15  N   -0.587373
    16  H    0.389599
    17  C   -0.082836
    18  H    0.198521
    19  C    0.640894
    20  C   -0.358441
    21  H    0.168709
    22  H    0.168688
    23  O   -0.604459
    24  C    0.142975
    25  C   -0.191333
    26  H    0.146274
    27  C   -0.200146
    28  H    0.131803
    29  C   -0.167323
    30  H    0.156252
    31  C   -0.160503
    32  H    0.137621
    33  O   -0.641412
    34  H    0.417524
    35  C    0.370476
    36  N   -0.581458
    37  H    0.373897
    38  C   -0.062783
    39  H    0.186208
    40  C    0.648186
    41  C   -0.353938
    42  H    0.189828
    43  H    0.152964
    44  O   -0.555999
    45  C    0.114098
    46  C   -0.216500
    47  H    0.188302
    48  C   -0.194193
    49  H    0.131459
    50  C   -0.147116
    51  H    0.152881
    52  C   -0.196107
    53  H    0.121580
    54  O   -0.643330
    55  H    0.408946
    56  C    0.362443
    57  N   -0.599720
    58  H    0.366498
    59  C   -0.076072
    60  H    0.186503
    61  C    0.630648
    62  C   -0.394577
    63  H    0.163326
    64  H    0.182069
    65  O   -0.533887
    66  C    0.147093
    67  C   -0.199524
    68  H    0.124052
    69  C   -0.202848
    70  H    0.166835
    71  C   -0.119072
    72  H    0.122841
    73  C   -0.149505
    74  H    0.157064
    75  C   -0.123448
    76  H    0.142969
    77  N   -0.608272
    78  H    0.357430
    79  C   -0.056555
    80  H    0.185598
    81  C    0.622558
    82  C   -0.446769
    83  H    0.164872
    84  H    0.174012
    85  H    0.159274
    86  O   -0.547639
    87  N   -0.591686
    88  H    0.358306
    89  C   -0.081223
    90  H    0.182714
    91  C    0.627878
    92  C   -0.282753
    93  H    0.194710
    94  H    0.131056
    95  O   -0.545536
    96  C   -0.075410
    97  H    0.125867
    98  C   -0.458044
    99  H    0.140005
   100  H    0.134609
   101  H    0.173610
   102  C   -0.470606
   103  H    0.130206
   104  H    0.139878
   105  H    0.178529
   106  N   -0.602718
   107  H    0.350840
   108  C   -0.051393
   109  H    0.181929
   110  C    0.635352
   111  C   -0.440405
   112  H    0.153078
   113  H    0.164561
   114  H    0.169773
   115  O   -0.553636
   116  N   -0.626969
   117  H    0.362540
   118  C   -0.021025
   119  H    0.171052
   120  C    0.626796
   121  C   -0.380322
   122  H    0.203258
   123  H    0.152540
   124  O   -0.538880
   125  C    0.316633
   126  C   -0.079884
   127  H    0.132183
   128  N   -0.641493
   129  H    0.408071
   130  C    0.203847
   131  H    0.151128
   132  N   -0.455098
   133  N   -0.626090
   134  H    0.353587
   135  C   -0.026243
   136  H    0.145940
   137  C    0.655119
   138  C    0.101329
   139  H    0.178622
   140  O   -0.572405
   141  C   -0.481259
   142  H    0.175179
   143  H    0.141439
   144  H    0.176030
   145  O   -0.622775
   146  H    0.395355
   147  N   -0.592081
   148  H    0.351031
   149  C   -0.059436
   150  H    0.174521
   151  C    0.614945
   152  C   -0.067884
   153  H    0.132294
   154  O   -0.571534
   155  C   -0.466967
   156  H    0.150517
   157  H    0.162467
   158  H    0.148647
   159  C   -0.474023
   160  H    0.141455
   161  H    0.141547
   162  H    0.195165
   163  N   -0.613499
   164  H    0.363670
   165  C   -0.050392
   166  H    0.150516
   167  C    0.600327
   168  C   -0.289097
   169  H    0.164159
   170  H    0.159560
   171  O   -0.642197
   172  C   -0.272545
   173  H    0.145838
   174  H    0.175476
   175  C   -0.164556
   176  H    0.180240
   177  H    0.135534
   178  N   -0.602591
   179  H    0.426596
   180  N   -0.754576
   181  H    0.361796
   182  H    0.364201
   183  N   -0.779177
   184  H    0.348463
   185  H    0.408256
   186  C    0.748088
   187  O   -0.531541
   188  H    0.469649
 Sum of Mulliken charges =   1.00000

 Dipole moment (field-independent basis, Debye):
    X=              0.0551    Y=            -29.5325    Z=            -35.0907  Tot=             45.8642
 Quadrupole moment (field-independent basis, Debye-Ang):
   XX=            -16.3249   YY=           -271.7503   ZZ=            -75.2683
   XY=            151.9076   XZ=            361.2831   YZ=            348.8037

 Normal termination of Gaussian 16 at Wed Aug 10 03:58:49 2022.
