 Gaussian 16, Revision C.01,
 Gaussian 16:  ES64L-G16RevC.01  3-Jul-2019

 ----------------------------------------------------------------------
 # B3LYP/6-31G* empiricaldispersion=gd3bj guess=read geom=check nosymm
 integral(ultrafinegrid)
 ----------------------------------------------------------------------

 ------------------------------------------------------
 Candidate Structure: Conf:617 Charge calc in gas phase
 ------------------------------------------------------
 Structure from the checkpoint file:  "conf-617.chk"
 Charge =  1 Multiplicity = 1

                          Input orientation:
 ---------------------------------------------------------------------
 Center     Atomic      Atomic             Coordinates (Angstroms)
 Number     Number       Type             X           Y           Z
 ---------------------------------------------------------------------
      1          7           0      -11.869286   -1.691781   -0.625892
      2          1           0      -12.233290   -0.755669   -0.431744
      3          1           0      -12.140570   -1.998461   -1.628253
      4          1           0      -12.252521   -2.341188    0.065604
      5          6           0      -10.362858   -1.736327   -0.732732
      6          1           0       -9.961838   -0.745039   -0.516574
      7          6           0      -10.155308   -2.095672   -2.235446
      8          6           0       -9.761450   -2.760503    0.236349
      9          1           0      -10.220885   -2.675024    1.229806
     10          1           0       -9.919319   -3.788743   -0.106419
     11          8           0      -11.184678   -2.334079   -2.898736
     12          6           0       -8.270139   -2.505701    0.411982
     13          8           0       -7.699597   -1.537648   -0.043772
     14          8           0       -7.696582   -3.464049    1.138399
     15          7           0       -8.916876   -2.145804   -2.678856
     16          1           0       -8.112465   -1.957922   -2.073121
     17          6           0       -8.556606   -2.547700   -4.035288
     18          1           0       -9.188044   -3.391356   -4.329282
     19          6           0       -7.082210   -2.973484   -3.926884
     20          6           0       -8.755742   -1.382831   -5.046711
     21          1           0       -7.967011   -0.642320   -4.884486
     22          1           0       -9.715910   -0.914634   -4.803903
     23          8           0       -6.467855   -2.804119   -2.873208
     24          6           0       -8.763219   -1.845955   -6.485415
     25          6           0       -7.690603   -1.567547   -7.347488
     26          1           0       -6.833387   -1.021061   -6.966228
     27          6           0       -9.843480   -2.585277   -6.983746
     28          1           0      -10.691310   -2.801577   -6.336921
     29          6           0       -7.694848   -2.018678   -8.664210
     30          1           0       -6.870197   -1.801608   -9.335231
     31          6           0       -9.859195   -3.041335   -8.299424
     32          1           0      -10.708523   -3.610673   -8.670652
     33          8           0       -8.728048   -3.173447  -10.441294
     34          1           0       -9.541052   -3.654062  -10.662689
     35          6           0       -8.780976   -2.757967   -9.146747
     36          7           0       -6.526063   -3.493907   -5.041165
     37          1           0       -7.051667   -3.396369   -5.903364
     38          6           0       -5.073977   -3.491679   -5.169902
     39          1           0       -4.651218   -4.160062   -4.413993
     40          6           0       -4.532220   -2.065167   -4.954964
     41          6           0       -4.682920   -3.988871   -6.583844
     42          1           0       -5.249474   -3.405414   -7.318832
     43          1           0       -4.999707   -5.033792   -6.678214
     44          8           0       -5.138812   -1.075895   -5.371952
     45          6           0       -3.202420   -3.836406   -6.833361
     46          6           0       -2.701739   -2.681708   -7.449855
     47          1           0       -3.396855   -1.939216   -7.833139
     48          6           0       -2.288118   -4.769763   -6.336746
     49          1           0       -2.649253   -5.677353   -5.858484
     50          6           0       -1.334619   -2.448162   -7.546428
     51          1           0       -0.946582   -1.549805   -8.014345
     52          6           0       -0.914883   -4.550602   -6.425152
     53          1           0       -0.218043   -5.279354   -6.017834
     54          8           0        0.896063   -3.086752   -7.106262
     55          1           0        1.408741   -3.816427   -6.724341
     56          6           0       -0.436346   -3.380400   -7.018843
     57          7           0       -3.331110   -2.002722   -4.354527
     58          1           0       -2.820870   -2.845093   -4.107879
     59          6           0       -2.521861   -0.802129   -4.383870
     60          1           0       -2.719091   -0.276423   -5.323131
     61          6           0       -1.061503   -1.264332   -4.343118
     62          6           0       -2.870186    0.148804   -3.206085
     63          1           0       -3.927689    0.406374   -3.325798
     64          1           0       -2.766095   -0.411518   -2.271105
     65          8           0       -0.766644   -2.364834   -3.856354
     66          6           0       -1.989848    1.373275   -3.193364
     67          6           0       -0.986617    1.514882   -2.229847
     68          1           0       -0.913511    0.781514   -1.433333
     69          6           0       -2.078312    2.325757   -4.219335
     70          1           0       -2.864687    2.240222   -4.966705
     71          6           0       -0.067867    2.562559   -2.292555
     72          1           0        0.722169    2.643060   -1.552390
     73          6           0       -1.161972    3.377556   -4.288539
     74          1           0       -1.238497    4.107676   -5.089598
     75          6           0       -0.151067    3.491258   -3.331200
     76          1           0        0.570457    4.300307   -3.391865
     77          7           0       -0.157754   -0.413028   -4.864782
     78          1           0       -0.460243    0.533254   -5.069450
     79          6           0        1.290113   -0.646020   -4.794898
     80          1           0        1.433186   -1.716248   -4.960509
     81          6           0        1.781174   -0.270508   -3.383238
     82          6           0        1.993824    0.158019   -5.876056
     83          1           0        3.072444   -0.010601   -5.825299
     84          1           0        1.633676   -0.148919   -6.861566
     85          1           0        1.823865    1.229052   -5.730173
     86          8           0        2.370574    0.786572   -3.156569
     87          7           0        1.454430   -1.173239   -2.426783
     88          1           0        0.861598   -1.950958   -2.706158
     89          6           0        1.507833   -0.824713   -1.007260
     90          1           0        1.253564    0.236356   -0.938324
     91          6           0        2.931736   -0.972497   -0.429002
     92          6           0        0.503131   -1.657410   -0.215618
     93          1           0       -0.461070   -1.628077   -0.744259
     94          1           0        0.846527   -2.698157   -0.214718
     95          8           0        3.278959   -1.910617    0.276277
     96          6           0        0.309026   -1.195045    1.240385
     97          1           0        1.289809   -1.218774    1.726222
     98          6           0       -0.239906    0.234279    1.344620
     99          1           0       -1.222406    0.319296    0.860621
    100          1           0       -0.366086    0.519527    2.395230
    101          1           0        0.425596    0.972574    0.887203
    102          6           0       -0.612824   -2.177727    1.971841
    103          1           0       -1.609560   -2.198762    1.509433
    104          1           0       -0.738909   -1.892140    3.022333
    105          1           0       -0.208139   -3.195754    1.945238
    106          7           0        3.743021    0.077766   -0.738668
    107          1           0        3.360708    0.785604   -1.361692
    108          6           0        4.869333    0.415940    0.092273
    109          1           0        5.533046   -0.451620    0.182633
    110          6           0        4.359094    0.781205    1.508254
    111          6           0        5.605736    1.609768   -0.533721
    112          1           0        6.520960    1.862148    0.009115
    113          1           0        4.952544    2.489518   -0.537569
    114          1           0        5.879662    1.370180   -1.564849
    115          8           0        3.151178    0.786398    1.785250
    116          7           0        5.298719    1.154787    2.402277
    117          1           0        6.258720    1.226238    2.090620
    118          6           0        4.975223    1.823337    3.673462
    119          1           0        4.180685    1.251708    4.159754
    120          6           0        4.478675    3.242908    3.326611
    121          6           0        6.223957    1.862704    4.562459
    122          1           0        6.980941    2.475952    4.056453
    123          1           0        6.613654    0.841968    4.637305
    124          8           0        5.225320    4.224192    3.370752
    125          6           0        5.979913    2.370577    5.945259
    126          6           0        5.979766    1.714127    7.157694
    127          1           0        6.149865    0.659332    7.334010
    128          7           0        5.736151    3.694279    6.263281
    129          1           0        5.605360    4.474776    5.626500
    130          6           0        5.602113    3.766085    7.616555
    131          1           0        5.406245    4.703742    8.116162
    132          7           0        5.745286    2.587588    8.194960
    133          7           0        3.195805    3.303711    2.907949
    134          1           0        2.703370    2.419624    2.841550
    135          6           0        2.656290    4.459710    2.187919
    136          1           0        3.510037    4.970985    1.728973
    137          6           0        1.986032    5.412725    3.205881
    138          6           0        1.685334    3.997153    1.082089
    139          1           0        0.792233    3.577503    1.565887
    140          8           0        0.782473    5.667593    3.183126
    141          6           0        1.275107    5.157678    0.187734
    142          1           0        0.807426    5.944539    0.780811
    143          1           0        2.154528    5.558602   -0.329297
    144          1           0        0.562436    4.811508   -0.565663
    145          8           0        2.292430    3.013683    0.234391
    146          1           0        2.425099    2.185609    0.734195
    147          7           0        2.851513    5.890627    4.125978
    148          1           0        3.829737    5.606661    4.091244
    149          6           0        2.439962    6.614634    5.316084
    150          1           0        1.886454    7.513392    5.017028
    151          6           0        3.730964    7.017592    6.037537
    152          6           0        1.499796    5.761417    6.223181
    153          1           0        0.686451    5.463842    5.554084
    154          8           0        4.780798    6.375824    5.886531
    155          6           0        2.187437    4.498715    6.748752
    156          1           0        2.977298    4.735440    7.467987
    157          1           0        2.639910    3.919213    5.938220
    158          1           0        1.460143    3.856152    7.256951
    159          6           0        0.887107    6.585652    7.360953
    160          1           0        1.631692    6.877393    8.108586
    161          1           0        0.117996    5.998490    7.874419
    162          1           0        0.408318    7.498925    6.986062
    163          7           0        3.637493    8.074528    6.855844
    164          1           0        2.777060    8.603474    6.970343
    165          6           0        4.702156    8.513367    7.741417
    166          1           0        5.191676    7.641956    8.183056
    167          6           0        4.057855    9.358713    8.854848
    168          6           0        5.759173    9.343397    6.962096
    169          1           0        6.346805    8.642544    6.362673
    170          1           0        5.220999    9.987438    6.254137
    171          8           0        4.771705    9.436138    9.920290
    172          6           0        6.676381   10.203397    7.851674
    173          1           0        7.643301   10.354740    7.355245
    174          1           0        6.861151    9.689761    8.798071
    175          6           0        6.041957   11.575975    8.139797
    176          1           0        4.973359   11.493963    8.338558
    177          1           0        6.145670   12.222799    7.260447
    178          7           0        6.641435   12.289253    9.271783
    179          1           0        7.605214   12.580282    9.177581
    180          7           0        5.049101   11.727874   10.881716
    181          1           0        4.620380   12.000194   11.757044
    182          1           0        4.790738   10.687081   10.457342
    183          7           0        6.754668   13.274392   11.347456
    184          1           0        6.399628   13.369392   12.287907
    185          1           0        7.150248   14.116564   10.952325
    186          6           0        6.109599   12.405270   10.504509
    187          8           0        2.998512    9.953123    8.607181
    188          1           0       -6.743937   -3.255707    1.214778
 ---------------------------------------------------------------------

 SCF Done:  E(RB3LYP) =  -4648.91851785     A.U. after    2 cycles

 Alpha  occ. eigenvalues --  -19.32409 -19.27360 -19.27221 -19.24678 -19.23929
 Alpha  occ. eigenvalues --  -19.21192 -19.18764 -19.18218 -19.18128 -19.17759
 Alpha  occ. eigenvalues --  -19.16510 -19.16340 -19.14571 -19.14233 -19.13782
 Alpha  occ. eigenvalues --  -19.12286 -19.11414 -14.60254 -14.49076 -14.44255
 Alpha  occ. eigenvalues --  -14.43545 -14.43185 -14.42518 -14.42400 -14.42034
 Alpha  occ. eigenvalues --  -14.40104 -14.40088 -14.39569 -14.38326 -14.38218
 Alpha  occ. eigenvalues --  -14.37798 -14.37269 -14.31217 -10.45926 -10.43748
 Alpha  occ. eigenvalues --  -10.41566 -10.38518 -10.37967 -10.36348 -10.35416
 Alpha  occ. eigenvalues --  -10.35137 -10.34629 -10.33864 -10.33097 -10.33089
 Alpha  occ. eigenvalues --  -10.32191 -10.31431 -10.31124 -10.30923 -10.30890
 Alpha  occ. eigenvalues --  -10.30824 -10.29634 -10.29412 -10.28447 -10.28284
 Alpha  occ. eigenvalues --  -10.28223 -10.28142 -10.27232 -10.26786 -10.26774
 Alpha  occ. eigenvalues --  -10.26722 -10.26698 -10.26558 -10.26313 -10.26219
 Alpha  occ. eigenvalues --  -10.25817 -10.25520 -10.25307 -10.25271 -10.25237
 Alpha  occ. eigenvalues --  -10.25000 -10.24930 -10.24897 -10.24552 -10.24443
 Alpha  occ. eigenvalues --  -10.23995 -10.23838 -10.23755 -10.23691 -10.23566
 Alpha  occ. eigenvalues --  -10.23366 -10.23161 -10.23148 -10.22752 -10.22679
 Alpha  occ. eigenvalues --  -10.22648 -10.22186 -10.21956 -10.21812 -10.21289
 Alpha  occ. eigenvalues --  -10.20961 -10.20875 -10.20836 -10.20203 -10.19869
 Alpha  occ. eigenvalues --  -10.19199 -10.18614  -1.23785  -1.19793  -1.15021
 Alpha  occ. eigenvalues --   -1.14175  -1.13283  -1.12879  -1.11872  -1.10750
 Alpha  occ. eigenvalues --   -1.10126  -1.09749  -1.08187  -1.08090  -1.07185
 Alpha  occ. eigenvalues --   -1.06274  -1.06247  -1.06053  -1.05524  -1.05147
 Alpha  occ. eigenvalues --   -1.04776  -1.01279  -1.01095  -0.99158  -0.98941
 Alpha  occ. eigenvalues --   -0.98602  -0.97056  -0.97020  -0.96802  -0.96636
 Alpha  occ. eigenvalues --   -0.95750  -0.95153  -0.94349  -0.94165  -0.94116
 Alpha  occ. eigenvalues --   -0.92980  -0.91718  -0.90445  -0.88712  -0.86835
 Alpha  occ. eigenvalues --   -0.86191  -0.85090  -0.84797  -0.84401  -0.84002
 Alpha  occ. eigenvalues --   -0.83096  -0.82232  -0.82103  -0.82050  -0.81711
 Alpha  occ. eigenvalues --   -0.81001  -0.80839  -0.80564  -0.79674  -0.78962
 Alpha  occ. eigenvalues --   -0.77983  -0.77725  -0.77390  -0.76078  -0.75897
 Alpha  occ. eigenvalues --   -0.75417  -0.74547  -0.74499  -0.72872  -0.72555
 Alpha  occ. eigenvalues --   -0.72110  -0.71845  -0.71544  -0.70837  -0.70539
 Alpha  occ. eigenvalues --   -0.70343  -0.69930  -0.69844  -0.69507  -0.68745
 Alpha  occ. eigenvalues --   -0.68360  -0.68178  -0.67954  -0.67267  -0.66628
 Alpha  occ. eigenvalues --   -0.66213  -0.65717  -0.65444  -0.65033  -0.64619
 Alpha  occ. eigenvalues --   -0.64572  -0.64388  -0.64229  -0.63948  -0.63272
 Alpha  occ. eigenvalues --   -0.62859  -0.62471  -0.62084  -0.61913  -0.61758
 Alpha  occ. eigenvalues --   -0.61506  -0.61348  -0.61099  -0.61008  -0.60843
 Alpha  occ. eigenvalues --   -0.60734  -0.60418  -0.60334  -0.60249  -0.59506
 Alpha  occ. eigenvalues --   -0.59447  -0.58980  -0.58740  -0.57961  -0.57782
 Alpha  occ. eigenvalues --   -0.57462  -0.57193  -0.56942  -0.56546  -0.56402
 Alpha  occ. eigenvalues --   -0.55975  -0.55838  -0.55740  -0.55245  -0.54933
 Alpha  occ. eigenvalues --   -0.54656  -0.54595  -0.54432  -0.54308  -0.54073
 Alpha  occ. eigenvalues --   -0.53976  -0.53565  -0.53320  -0.53029  -0.52999
 Alpha  occ. eigenvalues --   -0.52795  -0.52590  -0.52405  -0.52135  -0.52064
 Alpha  occ. eigenvalues --   -0.51698  -0.51650  -0.51104  -0.50970  -0.50819
 Alpha  occ. eigenvalues --   -0.50769  -0.50395  -0.50187  -0.50000  -0.49921
 Alpha  occ. eigenvalues --   -0.49705  -0.49463  -0.49274  -0.49178  -0.49120
 Alpha  occ. eigenvalues --   -0.48796  -0.48491  -0.48389  -0.48273  -0.48100
 Alpha  occ. eigenvalues --   -0.47958  -0.47572  -0.47278  -0.47009  -0.46891
 Alpha  occ. eigenvalues --   -0.46789  -0.46678  -0.46544  -0.46465  -0.46337
 Alpha  occ. eigenvalues --   -0.46168  -0.46071  -0.45950  -0.45520  -0.45216
 Alpha  occ. eigenvalues --   -0.45177  -0.45018  -0.44972  -0.44778  -0.44689
 Alpha  occ. eigenvalues --   -0.44597  -0.44538  -0.44505  -0.44255  -0.44067
 Alpha  occ. eigenvalues --   -0.44037  -0.43780  -0.43747  -0.43372  -0.43264
 Alpha  occ. eigenvalues --   -0.43230  -0.43084  -0.42857  -0.42848  -0.42708
 Alpha  occ. eigenvalues --   -0.42309  -0.42238  -0.42146  -0.42080  -0.42047
 Alpha  occ. eigenvalues --   -0.41855  -0.41759  -0.41676  -0.41447  -0.41323
 Alpha  occ. eigenvalues --   -0.41270  -0.41097  -0.41048  -0.40957  -0.40769
 Alpha  occ. eigenvalues --   -0.40711  -0.40662  -0.40594  -0.40257  -0.40053
 Alpha  occ. eigenvalues --   -0.39964  -0.39816  -0.39744  -0.39736  -0.39658
 Alpha  occ. eigenvalues --   -0.39387  -0.39251  -0.39045  -0.38820  -0.38746
 Alpha  occ. eigenvalues --   -0.38743  -0.38702  -0.38602  -0.38367  -0.37228
 Alpha  occ. eigenvalues --   -0.36459  -0.36318  -0.36110  -0.35847  -0.35696
 Alpha  occ. eigenvalues --   -0.35538  -0.35508  -0.35236  -0.35013  -0.34857
 Alpha  occ. eigenvalues --   -0.34166  -0.34125  -0.33452  -0.32841  -0.32607
 Alpha  occ. eigenvalues --   -0.32228  -0.32100  -0.31604  -0.31555  -0.31285
 Alpha  occ. eigenvalues --   -0.31137  -0.30943  -0.30833  -0.29647  -0.29502
 Alpha  occ. eigenvalues --   -0.29277  -0.29070  -0.28985  -0.28800  -0.28501
 Alpha  occ. eigenvalues --   -0.28364  -0.27892  -0.27688  -0.27634  -0.27131
 Alpha  occ. eigenvalues --   -0.27118  -0.26823  -0.26436  -0.26091  -0.25374
 Alpha  occ. eigenvalues --   -0.22895
 Alpha virt. eigenvalues --   -0.12871  -0.12118  -0.11500  -0.08141  -0.07189
 Alpha virt. eigenvalues --   -0.06925  -0.06651  -0.06090  -0.05496  -0.05190
 Alpha virt. eigenvalues --   -0.05108  -0.04636  -0.04623  -0.03899  -0.03742

 Mulliken charges:
               1
     1  N   -0.771506
     2  H    0.419273
     3  H    0.440424
     4  H    0.412484
     5  C   -0.094889
     6  H    0.247329
     7  C    0.637630
     8  C   -0.397905
     9  H    0.214333
    10  H    0.228343
    11  O   -0.554446
    12  C    0.617905
    13  O   -0.443058
    14  O   -0.542026
    15  N   -0.615404
    16  H    0.418068
    17  C   -0.078154
    18  H    0.194814
    19  C    0.634730
    20  C   -0.354195
    21  H    0.193637
    22  H    0.169456
    23  O   -0.541794
    24  C    0.103748
    25  C   -0.225690
    26  H    0.196319
    27  C   -0.187161
    28  H    0.138160
    29  C   -0.164287
    30  H    0.157217
    31  C   -0.191592
    32  H    0.134286
    33  O   -0.628917
    34  H    0.415443
    35  C    0.357058
    36  N   -0.609571
    37  H    0.360568
    38  C   -0.035992
    39  H    0.170210
    40  C    0.642685
    41  C   -0.395704
    42  H    0.168667
    43  H    0.168344
    44  O   -0.563934
    45  C    0.152895
    46  C   -0.185925
    47  H    0.140887
    48  C   -0.201143
    49  H    0.132262
    50  C   -0.167173
    51  H    0.148911
    52  C   -0.168007
    53  H    0.134282
    54  O   -0.644863
    55  H    0.415750
    56  C    0.363679
    57  N   -0.593153
    58  H    0.362182
    59  C   -0.040928
    60  H    0.175221
    61  C    0.640380
    62  C   -0.344245
    63  H    0.178431
    64  H    0.156913
    65  O   -0.578975
    66  C    0.143274
    67  C   -0.205879
    68  H    0.143683
    69  C   -0.224950
    70  H    0.133685
    71  C   -0.132297
    72  H    0.196872
    73  C   -0.131178
    74  H    0.137740
    75  C   -0.141924
    76  H    0.145523
    77  N   -0.592531
    78  H    0.355212
    79  C   -0.060782
    80  H    0.174294
    81  C    0.638028
    82  C   -0.465560
    83  H    0.170067
    84  H    0.164549
    85  H    0.170827
    86  O   -0.540214
    87  N   -0.628237
    88  H    0.371934
    89  C   -0.064400
    90  H    0.171292
    91  C    0.652173
    92  C   -0.293796
    93  H    0.123734
    94  H    0.160451
    95  O   -0.531374
    96  C   -0.082282
    97  H    0.178442
    98  C   -0.462715
    99  H    0.129239
   100  H    0.145831
   101  H    0.151005
   102  C   -0.444393
   103  H    0.118617
   104  H    0.143023
   105  H    0.148569
   106  N   -0.622851
   107  H    0.379343
   108  C   -0.047051
   109  H    0.188127
   110  C    0.657858
   111  C   -0.492365
   112  H    0.150180
   113  H    0.189015
   114  H    0.182003
   115  O   -0.566123
   116  N   -0.596549
   117  H    0.344800
   118  C   -0.046432
   119  H    0.188525
   120  C    0.624616
   121  C   -0.378221
   122  H    0.169250
   123  H    0.165494
   124  O   -0.547986
   125  C    0.311701
   126  C   -0.086858
   127  H    0.120673
   128  N   -0.618816
   129  H    0.394520
   130  C    0.200477
   131  H    0.158297
   132  N   -0.436590
   133  N   -0.612455
   134  H    0.363048
   135  C   -0.072761
   136  H    0.180542
   137  C    0.642815
   138  C    0.113927
   139  H    0.141406
   140  O   -0.545091
   141  C   -0.473478
   142  H    0.186102
   143  H    0.144873
   144  H    0.154102
   145  O   -0.683993
   146  H    0.443025
   147  N   -0.653403
   148  H    0.391528
   149  C   -0.018180
   150  H    0.157436
   151  C    0.622267
   152  C   -0.088304
   153  H    0.170458
   154  O   -0.577508
   155  C   -0.457651
   156  H    0.158447
   157  H    0.143355
   158  H    0.141171
   159  C   -0.466480
   160  H    0.160424
   161  H    0.146355
   162  H    0.142893
   163  N   -0.614805
   164  H    0.354796
   165  C   -0.009476
   166  H    0.170357
   167  C    0.581747
   168  C   -0.283357
   169  H    0.172114
   170  H    0.140053
   171  O   -0.637764
   172  C   -0.270783
   173  H    0.128359
   174  H    0.182370
   175  C   -0.175381
   176  H    0.216499
   177  H    0.157606
   178  N   -0.595632
   179  H    0.341605
   180  N   -0.766560
   181  H    0.331257
   182  H    0.464896
   183  N   -0.761001
   184  H    0.353125
   185  H    0.352049
   186  C    0.754460
   187  O   -0.561218
   188  H    0.446938
 Sum of Mulliken charges =   1.00000

 Dipole moment (field-independent basis, Debye):
    X=            -36.7534    Y=              2.2036    Z=             -4.7883  Tot=             37.1294
 Quadrupole moment (field-independent basis, Debye-Ang):
   XX=             30.0699   YY=           -273.9986   ZZ=           -415.9787
   XY=            247.6274   XZ=            116.2138   YZ=            209.7753

 Normal termination of Gaussian 16 at Wed Aug 10 03:59:17 2022.
