 Gaussian 16, Revision C.01,
 Gaussian 16:  ES64L-G16RevC.01  3-Jul-2019

 ----------------------------------------------------------------------
 # B3LYP/6-31G* empiricaldispersion=gd3bj guess=read geom=check nosymm
 integral(ultrafinegrid)
 ----------------------------------------------------------------------

 ------------------------------------------------------
 Candidate Structure: Conf:647 Charge calc in gas phase
 ------------------------------------------------------
 Structure from the checkpoint file:  "conf-647.chk"
 Charge =  1 Multiplicity = 1

                          Input orientation:
 ---------------------------------------------------------------------
 Center     Atomic      Atomic             Coordinates (Angstroms)
 Number     Number       Type             X           Y           Z
 ---------------------------------------------------------------------
      1          7           0        0.123696   -6.190783   -0.275105
      2          1           0        0.304744   -5.168719   -0.282889
      3          1           0       -0.342029   -6.398724    0.623901
      4          1           0        1.000820   -6.730894   -0.407903
      5          6           0       -0.849362   -6.577810   -1.353861
      6          1           0       -0.549175   -6.043063   -2.256954
      7          6           0       -2.208910   -6.092148   -0.811528
      8          6           0       -0.841045   -8.096213   -1.564628
      9          1           0       -1.228206   -8.594727   -0.665543
     10          1           0       -1.520071   -8.353321   -2.381479
     11          8           0       -2.403190   -6.169643    0.401504
     12          6           0        0.542752   -8.648841   -1.850347
     13          8           0        1.575510   -8.151437   -1.428010
     14          8           0        0.504229   -9.754258   -2.587678
     15          7           0       -3.061979   -5.593016   -1.710954
     16          1           0       -2.796354   -5.482496   -2.688331
     17          6           0       -4.136486   -4.690321   -1.330964
     18          1           0       -4.800153   -5.199720   -0.627999
     19          6           0       -4.862435   -4.362840   -2.642477
     20          6           0       -3.596364   -3.357566   -0.666941
     21          1           0       -3.895874   -3.349523    0.383473
     22          1           0       -4.082158   -2.510269   -1.161736
     23          8           0       -4.273428   -4.446356   -3.716099
     24          6           0       -2.100001   -3.178627   -0.767020
     25          6           0       -1.296403   -3.185283    0.375963
     26          1           0       -1.756721   -3.309969    1.351923
     27          6           0       -1.477148   -3.033104   -2.018342
     28          1           0       -2.088048   -3.010512   -2.914275
     29          6           0        0.092594   -3.022558    0.291447
     30          1           0        0.703795   -2.946385    1.185489
     31          6           0       -0.097968   -2.886642   -2.119974
     32          1           0        0.374146   -2.743545   -3.087118
     33          8           0        2.043661   -2.668298   -1.037552
     34          1           0        2.185115   -1.827735   -1.531663
     35          6           0        0.697650   -2.852618   -0.961714
     36          7           0       -6.137449   -3.924928   -2.512958
     37          1           0       -6.599354   -4.021814   -1.617699
     38          6           0       -6.947754   -3.534367   -3.670704
     39          1           0       -6.833435   -4.282147   -4.458672
     40          6           0       -6.459204   -2.213904   -4.284347
     41          6           0       -8.425417   -3.435573   -3.232127
     42          1           0       -8.487157   -2.753484   -2.374110
     43          1           0       -8.738033   -4.427898   -2.883001
     44          8           0       -6.366304   -2.058733   -5.488007
     45          6           0       -9.335490   -2.951372   -4.333212
     46          6           0       -9.649339   -1.591858   -4.456250
     47          1           0       -9.253918   -0.885441   -3.730929
     48          6           0       -9.849181   -3.839426   -5.281702
     49          1           0       -9.622522   -4.900411   -5.206532
     50          6           0      -10.450152   -1.127275   -5.492060
     51          1           0      -10.699070   -0.075697   -5.586881
     52          6           0      -10.652962   -3.390316   -6.326398
     53          1           0      -11.048075   -4.095955   -7.053908
     54          8           0      -11.735737   -1.520933   -7.429969
     55          1           0      -12.020465   -2.240914   -8.014113
     56          6           0      -10.954557   -2.028839   -6.435405
     57          7           0       -6.227306   -1.203005   -3.376738
     58          1           0       -5.996954   -1.503142   -2.437576
     59          6           0       -5.520238   -0.025425   -3.841956
     60          1           0       -5.994344    0.281610   -4.776315
     61          6           0       -4.051650   -0.384830   -4.114915
     62          6           0       -5.612617    1.117444   -2.808086
     63          1           0       -6.672740    1.357458   -2.669143
     64          1           0       -5.226309    0.757486   -1.846482
     65          8           0       -3.466103   -1.210050   -3.397493
     66          6           0       -4.820577    2.322357   -3.260746
     67          6           0       -3.615012    2.660492   -2.638408
     68          1           0       -3.297787    2.110765   -1.757073
     69          6           0       -5.225363    3.052178   -4.386837
     70          1           0       -6.171734    2.817017   -4.869648
     71          6           0       -2.815455    3.688100   -3.139327
     72          1           0       -1.883867    3.939720   -2.642010
     73          6           0       -4.423863    4.074895   -4.896113
     74          1           0       -4.749070    4.630638   -5.770802
     75          6           0       -3.211190    4.388481   -4.278578
     76          1           0       -2.583747    5.179085   -4.677674
     77          7           0       -3.465107    0.255988   -5.140835
     78          1           0       -3.970771    1.014114   -5.582526
     79          6           0       -2.074590    0.051867   -5.553638
     80          1           0       -1.881042   -1.022518   -5.463705
     81          6           0       -1.116712    0.795618   -4.599668
     82          6           0       -1.894113    0.515050   -6.992227
     83          1           0       -0.870659    0.325202   -7.324149
     84          1           0       -2.585999   -0.017510   -7.650720
     85          1           0       -2.066561    1.592638   -7.069297
     86          8           0       -0.528684    1.826763   -4.923542
     87          7           0       -0.980583    0.209546   -3.382747
     88          1           0       -1.641157   -0.528342   -3.143497
     89          6           0       -0.301570    0.921832   -2.305442
     90          1           0       -0.504308    1.985942   -2.453180
     91          6           0        1.222839    0.745977   -2.417143
     92          6           0       -0.831998    0.487368   -0.940599
     93          1           0       -1.923863    0.603702   -0.966259
     94          1           0       -0.631745   -0.575923   -0.797881
     95          8           0        1.857952   -0.086875   -1.738550
     96          6           0       -0.263193    1.268942    0.256650
     97          1           0        0.804149    1.037982    0.328080
     98          6           0       -0.410980    2.788671    0.104380
     99          1           0       -1.454211    3.069190   -0.095723
    100          1           0       -0.107826    3.294658    1.027364
    101          1           0        0.221227    3.186674   -0.696218
    102          6           0       -0.922552    0.769731    1.546980
    103          1           0       -1.995937    1.001303    1.556674
    104          1           0       -0.468665    1.241638    2.424313
    105          1           0       -0.809055   -0.315249    1.653587
    106          7           0        1.832904    1.593490   -3.251617
    107          1           0        1.238882    2.217845   -3.791157
    108          6           0        3.262833    1.868300   -3.145741
    109          1           0        3.801383    0.916604   -3.178414
    110          6           0        3.474005    2.564265   -1.781437
    111          6           0        3.703253    2.783035   -4.285686
    112          1           0        4.779149    2.969815   -4.225100
    113          1           0        3.185513    3.744694   -4.212641
    114          1           0        3.482321    2.327355   -5.255723
    115          8           0        2.754648    3.504824   -1.448948
    116          7           0        4.449038    2.051170   -1.006606
    117          1           0        5.070440    1.312245   -1.324026
    118          6           0        4.773052    2.574216    0.308125
    119          1           0        4.969194    3.651024    0.232638
    120          6           0        6.050747    1.842858    0.745170
    121          6           0        3.613561    2.356646    1.322118
    122          1           0        2.705104    2.747049    0.853329
    123          1           0        3.793455    2.974985    2.207656
    124          8           0        6.604562    1.033231   -0.013434
    125          6           0        3.477020    0.938495    1.763573
    126          6           0        3.747686    0.333323    2.971460
    127          1           0        4.070077    0.811724    3.885970
    128          7           0        3.143012   -0.102151    0.914037
    129          1           0        2.854180   -0.013503   -0.055795
    130          6           0        3.225429   -1.259714    1.635968
    131          1           0        3.037721   -2.221648    1.183218
    132          7           0        3.588014   -1.034188    2.884605
    133          7           0        6.484422    2.108225    1.982620
    134          1           0        5.949611    2.683804    2.627229
    135          6           0        7.467640    1.272147    2.649222
    136          1           0        7.376113    0.255113    2.247994
    137          6           0        7.067584    1.279839    4.134721
    138          6           0        8.912903    1.775956    2.374844
    139          1           0        9.039463    2.734850    2.894212
    140          8           0        6.317422    2.158178    4.570190
    141          6           0        9.989470    0.794823    2.841748
    142          1           0       10.041714    0.691066    3.929534
    143          1           0        9.823643   -0.198211    2.403143
    144          1           0       10.958899    1.153947    2.485183
    145          8           0        9.067512    2.059869    0.992707
    146          1           0        8.515713    1.436116    0.485066
    147          7           0        7.565797    0.276255    4.879891
    148          1           0        8.274263   -0.339200    4.495438
    149          6           0        7.492930    0.245343    6.335127
    150          1           0        7.076243    1.202497    6.660587
    151          6           0        8.940800    0.076723    6.814946
    152          6           0        6.590808   -0.908019    6.846646
    153          1           0        7.077193   -1.847337    6.546686
    154          8           0        9.735211   -0.602746    6.147202
    155          6           0        6.476676   -0.883359    8.376732
    156          1           0        6.033597    0.060582    8.719564
    157          1           0        7.443367   -0.996926    8.874702
    158          1           0        5.825458   -1.694676    8.718404
    159          6           0        5.204967   -0.843324    6.195618
    160          1           0        4.723299    0.119570    6.405282
    161          1           0        4.561675   -1.634197    6.596747
    162          1           0        5.249766   -0.974667    5.112077
    163          7           0        9.266193    0.686150    7.960901
    164          1           0        8.595069    1.183557    8.546355
    165          6           0       10.544496    0.502502    8.621130
    166          1           0       10.762757   -0.572054    8.643777
    167          6           0       10.371727    0.998251   10.092563
    168          6           0       11.696352    1.253936    7.892079
    169          1           0       11.254878    1.847994    7.086974
    170          1           0       12.154139    1.970399    8.582521
    171          8           0       11.376097    0.759858   10.857745
    172          6           0       12.790430    0.365100    7.278777
    173          1           0       13.558386    1.017820    6.845440
    174          1           0       12.359040   -0.225901    6.464468
    175          6           0       13.454177   -0.607449    8.278226
    176          1           0       14.440731   -0.925038    7.921201
    177          1           0       12.862003   -1.520196    8.375943
    178          7           0       13.544394   -0.061448    9.636206
    179          1           0       12.612045    0.008587   10.138594
    180          7           0       15.507770    1.188870    9.378263
    181          1           0       16.114990    1.921806    9.712612
    182          1           0       15.948291    0.435568    8.871959
    183          7           0       13.890377    1.768090   10.964713
    184          1           0       14.496412    2.433968   11.417748
    185          1           0       12.896057    1.675155   11.235009
    186          6           0       14.322120    0.956996    9.992429
    187          8           0        9.317422    1.567620   10.387486
    188          1           0        1.418865  -10.084578   -2.695517
 ---------------------------------------------------------------------

 SCF Done:  E(RB3LYP) =  -4648.94143571     A.U. after    2 cycles

 Alpha  occ. eigenvalues --  -19.33054 -19.28216 -19.24935 -19.24104 -19.23129
 Alpha  occ. eigenvalues --  -19.22467 -19.20767 -19.20695 -19.19434 -19.19132
 Alpha  occ. eigenvalues --  -19.17629 -19.17011 -19.16151 -19.16097 -19.14591
 Alpha  occ. eigenvalues --  -19.12160 -19.11199 -14.56691 -14.48257 -14.46793
 Alpha  occ. eigenvalues --  -14.45027 -14.44753 -14.43505 -14.43389 -14.42894
 Alpha  occ. eigenvalues --  -14.42752 -14.41711 -14.41576 -14.41026 -14.40614
 Alpha  occ. eigenvalues --  -14.39890 -14.38091 -14.34423 -10.46460 -10.42131
 Alpha  occ. eigenvalues --  -10.39696 -10.39564 -10.39403 -10.37185 -10.36901
 Alpha  occ. eigenvalues --  -10.36009 -10.35965 -10.35080 -10.34826 -10.34341
 Alpha  occ. eigenvalues --  -10.34276 -10.34185 -10.33229 -10.31743 -10.31431
 Alpha  occ. eigenvalues --  -10.31321 -10.31252 -10.30486 -10.30165 -10.30155
 Alpha  occ. eigenvalues --  -10.29607 -10.29570 -10.29221 -10.29105 -10.29038
 Alpha  occ. eigenvalues --  -10.28447 -10.28357 -10.28303 -10.28073 -10.27784
 Alpha  occ. eigenvalues --  -10.27602 -10.27522 -10.27430 -10.26893 -10.26863
 Alpha  occ. eigenvalues --  -10.26163 -10.25868 -10.25805 -10.25735 -10.25633
 Alpha  occ. eigenvalues --  -10.25436 -10.25208 -10.25161 -10.25096 -10.25065
 Alpha  occ. eigenvalues --  -10.25005 -10.24826 -10.24775 -10.24764 -10.24748
 Alpha  occ. eigenvalues --  -10.24569 -10.24433 -10.23986 -10.22803 -10.22674
 Alpha  occ. eigenvalues --  -10.22540 -10.22425 -10.22384 -10.22102 -10.20544
 Alpha  occ. eigenvalues --  -10.20111 -10.19440  -1.24497  -1.17527  -1.15648
 Alpha  occ. eigenvalues --   -1.14531  -1.13108  -1.12598  -1.11910  -1.11531
 Alpha  occ. eigenvalues --   -1.11276  -1.11099  -1.10769  -1.09813  -1.08823
 Alpha  occ. eigenvalues --   -1.08403  -1.07957  -1.06310  -1.05317  -1.04791
 Alpha  occ. eigenvalues --   -1.04163  -1.04051  -1.03196  -1.01260  -1.00374
 Alpha  occ. eigenvalues --   -1.00156  -0.99453  -0.98149  -0.97991  -0.97481
 Alpha  occ. eigenvalues --   -0.96599  -0.96388  -0.96303  -0.95312  -0.94545
 Alpha  occ. eigenvalues --   -0.93737  -0.92715  -0.91592  -0.89876  -0.89307
 Alpha  occ. eigenvalues --   -0.87895  -0.87244  -0.86133  -0.85468  -0.84753
 Alpha  occ. eigenvalues --   -0.84634  -0.84492  -0.84131  -0.83412  -0.82993
 Alpha  occ. eigenvalues --   -0.82167  -0.81286  -0.80780  -0.80686  -0.80524
 Alpha  occ. eigenvalues --   -0.80423  -0.78910  -0.77815  -0.77615  -0.76481
 Alpha  occ. eigenvalues --   -0.75413  -0.74741  -0.74154  -0.73826  -0.73720
 Alpha  occ. eigenvalues --   -0.73401  -0.72999  -0.72356  -0.72082  -0.71761
 Alpha  occ. eigenvalues --   -0.71552  -0.71230  -0.70880  -0.70762  -0.69722
 Alpha  occ. eigenvalues --   -0.69624  -0.69409  -0.68926  -0.68320  -0.67984
 Alpha  occ. eigenvalues --   -0.67842  -0.67492  -0.66356  -0.65826  -0.65715
 Alpha  occ. eigenvalues --   -0.65407  -0.65321  -0.65149  -0.64920  -0.64870
 Alpha  occ. eigenvalues --   -0.64409  -0.64324  -0.63945  -0.63373  -0.63140
 Alpha  occ. eigenvalues --   -0.62852  -0.62784  -0.62601  -0.62196  -0.61931
 Alpha  occ. eigenvalues --   -0.61701  -0.61493  -0.61356  -0.60991  -0.60324
 Alpha  occ. eigenvalues --   -0.60213  -0.60018  -0.59787  -0.59663  -0.59278
 Alpha  occ. eigenvalues --   -0.58512  -0.58108  -0.57980  -0.57801  -0.57660
 Alpha  occ. eigenvalues --   -0.57228  -0.57151  -0.56976  -0.56865  -0.56686
 Alpha  occ. eigenvalues --   -0.56491  -0.56248  -0.55879  -0.55686  -0.55456
 Alpha  occ. eigenvalues --   -0.54864  -0.54616  -0.54416  -0.54313  -0.53977
 Alpha  occ. eigenvalues --   -0.53530  -0.53481  -0.53116  -0.52832  -0.52791
 Alpha  occ. eigenvalues --   -0.52674  -0.52532  -0.52398  -0.52186  -0.51946
 Alpha  occ. eigenvalues --   -0.51847  -0.51607  -0.51420  -0.51247  -0.51185
 Alpha  occ. eigenvalues --   -0.51100  -0.50835  -0.50522  -0.50437  -0.50279
 Alpha  occ. eigenvalues --   -0.49931  -0.49884  -0.49649  -0.49496  -0.49379
 Alpha  occ. eigenvalues --   -0.49280  -0.49258  -0.49109  -0.48947  -0.48758
 Alpha  occ. eigenvalues --   -0.48575  -0.48021  -0.47984  -0.47795  -0.47763
 Alpha  occ. eigenvalues --   -0.47596  -0.47554  -0.47495  -0.47284  -0.47261
 Alpha  occ. eigenvalues --   -0.47052  -0.46864  -0.46337  -0.46133  -0.45959
 Alpha  occ. eigenvalues --   -0.45921  -0.45878  -0.45708  -0.45512  -0.45479
 Alpha  occ. eigenvalues --   -0.45398  -0.45351  -0.45034  -0.44979  -0.44797
 Alpha  occ. eigenvalues --   -0.44593  -0.44542  -0.44496  -0.44417  -0.44201
 Alpha  occ. eigenvalues --   -0.44006  -0.43891  -0.43729  -0.43654  -0.43570
 Alpha  occ. eigenvalues --   -0.43353  -0.43238  -0.42910  -0.42815  -0.42799
 Alpha  occ. eigenvalues --   -0.42704  -0.42541  -0.42387  -0.42177  -0.42086
 Alpha  occ. eigenvalues --   -0.42062  -0.41913  -0.41818  -0.41765  -0.41468
 Alpha  occ. eigenvalues --   -0.41091  -0.41006  -0.40908  -0.40680  -0.40671
 Alpha  occ. eigenvalues --   -0.40410  -0.40119  -0.39736  -0.39521  -0.39413
 Alpha  occ. eigenvalues --   -0.38817  -0.38586  -0.38510  -0.38315  -0.38311
 Alpha  occ. eigenvalues --   -0.38180  -0.38135  -0.38034  -0.37650  -0.37160
 Alpha  occ. eigenvalues --   -0.36551  -0.36362  -0.36293  -0.36209  -0.36186
 Alpha  occ. eigenvalues --   -0.35816  -0.35695  -0.35395  -0.35194  -0.34998
 Alpha  occ. eigenvalues --   -0.34355  -0.33530  -0.32532  -0.32345  -0.32092
 Alpha  occ. eigenvalues --   -0.32013  -0.31911  -0.31888  -0.31795  -0.31628
 Alpha  occ. eigenvalues --   -0.30995  -0.30908  -0.30790  -0.30725  -0.30507
 Alpha  occ. eigenvalues --   -0.30362  -0.29853  -0.29624  -0.28893  -0.28514
 Alpha  occ. eigenvalues --   -0.28233  -0.27397  -0.27254  -0.26512  -0.25513
 Alpha  occ. eigenvalues --   -0.25356
 Alpha virt. eigenvalues --   -0.13196  -0.11985  -0.10747  -0.09653  -0.07966
 Alpha virt. eigenvalues --   -0.07759  -0.07395  -0.07087  -0.06862  -0.06207
 Alpha virt. eigenvalues --   -0.05642  -0.05404  -0.05070  -0.04773  -0.04517

 Mulliken charges:
               1
     1  N   -0.765960
     2  H    0.420598
     3  H    0.409658
     4  H    0.434342
     5  C   -0.120637
     6  H    0.214499
     7  C    0.649550
     8  C   -0.386013
     9  H    0.233344
    10  H    0.230615
    11  O   -0.530960
    12  C    0.620645
    13  O   -0.477324
    14  O   -0.528788
    15  N   -0.605023
    16  H    0.366102
    17  C   -0.037004
    18  H    0.188502
    19  C    0.635351
    20  C   -0.381155
    21  H    0.172926
    22  H    0.194396
    23  O   -0.517574
    24  C    0.138417
    25  C   -0.182009
    26  H    0.160739
    27  C   -0.220061
    28  H    0.198495
    29  C   -0.254790
    30  H    0.181559
    31  C   -0.197512
    32  H    0.154501
    33  O   -0.678911
    34  H    0.454845
    35  C    0.342634
    36  N   -0.648756
    37  H    0.340622
    38  C   -0.026782
    39  H    0.197788
    40  C    0.643033
    41  C   -0.404049
    42  H    0.150385
    43  H    0.163670
    44  O   -0.498159
    45  C    0.168891
    46  C   -0.177708
    47  H    0.127839
    48  C   -0.179812
    49  H    0.127269
    50  C   -0.155073
    51  H    0.147213
    52  C   -0.189252
    53  H    0.130345
    54  O   -0.634540
    55  H    0.413230
    56  C    0.356916
    57  N   -0.598414
    58  H    0.330697
    59  C   -0.060476
    60  H    0.188928
    61  C    0.651557
    62  C   -0.365080
    63  H    0.178099
    64  H    0.146849
    65  O   -0.581069
    66  C    0.158136
    67  C   -0.192909
    68  H    0.139296
    69  C   -0.217510
    70  H    0.140030
    71  C   -0.126838
    72  H    0.153269
    73  C   -0.131912
    74  H    0.149134
    75  C   -0.123264
    76  H    0.151329
    77  N   -0.574901
    78  H    0.354735
    79  C   -0.062609
    80  H    0.176535
    81  C    0.636601
    82  C   -0.469091
    83  H    0.173993
    84  H    0.168766
    85  H    0.178590
    86  O   -0.537855
    87  N   -0.653407
    88  H    0.398825
    89  C   -0.049921
    90  H    0.182649
    91  C    0.656573
    92  C   -0.309617
    93  H    0.135828
    94  H    0.163083
    95  O   -0.611270
    96  C   -0.089049
    97  H    0.150267
    98  C   -0.478522
    99  H    0.135140
   100  H    0.157359
   101  H    0.176248
   102  C   -0.445843
   103  H    0.130425
   104  H    0.160891
   105  H    0.136481
   106  N   -0.571132
   107  H    0.378610
   108  C   -0.040008
   109  H    0.159858
   110  C    0.625323
   111  C   -0.479547
   112  H    0.176195
   113  H    0.182315
   114  H    0.169913
   115  O   -0.540649
   116  N   -0.620435
   117  H    0.361153
   118  C   -0.032911
   119  H    0.192499
   120  C    0.639345
   121  C   -0.398296
   122  H    0.203200
   123  H    0.169861
   124  O   -0.575692
   125  C    0.307905
   126  C   -0.096191
   127  H    0.159469
   128  N   -0.635814
   129  H    0.383936
   130  C    0.181342
   131  H    0.154307
   132  N   -0.446386
   133  N   -0.588221
   134  H    0.362711
   135  C   -0.121539
   136  H    0.176649
   137  C    0.628840
   138  C    0.186178
   139  H    0.136742
   140  O   -0.552407
   141  C   -0.491591
   142  H    0.170262
   143  H    0.136747
   144  H    0.165537
   145  O   -0.647449
   146  H    0.413095
   147  N   -0.600770
   148  H    0.356646
   149  C   -0.060290
   150  H    0.177371
   151  C    0.623187
   152  C   -0.075167
   153  H    0.133305
   154  O   -0.571654
   155  C   -0.463514
   156  H    0.149840
   157  H    0.162628
   158  H    0.147334
   159  C   -0.458474
   160  H    0.147468
   161  H    0.140027
   162  H    0.181985
   163  N   -0.614664
   164  H    0.360024
   165  C   -0.041440
   166  H    0.152678
   167  C    0.595075
   168  C   -0.282427
   169  H    0.162715
   170  H    0.143860
   171  O   -0.645041
   172  C   -0.278742
   173  H    0.134477
   174  H    0.186037
   175  C   -0.173712
   176  H    0.142293
   177  H    0.187114
   178  N   -0.600184
   179  H    0.407800
   180  N   -0.756049
   181  H    0.358474
   182  H    0.367821
   183  N   -0.778058
   184  H    0.347142
   185  H    0.424487
   186  C    0.764035
   187  O   -0.532371
   188  H    0.443187
 Sum of Mulliken charges =   1.00000

 Dipole moment (field-independent basis, Debye):
    X=              3.6119    Y=            -21.5325    Z=             -6.8657  Tot=             22.8874
 Quadrupole moment (field-independent basis, Debye-Ang):
   XX=           -135.0666   YY=           -377.3956   ZZ=           -491.2236
   XY=             56.1204   XZ=            195.8313   YZ=             44.5969

 Normal termination of Gaussian 16 at Wed Aug 10 03:59:34 2022.
