 Gaussian 16, Revision C.01,
 Gaussian 16:  ES64L-G16RevC.01  3-Jul-2019

 ----------------------------------------------------------------------
 # B3LYP/6-31G* empiricaldispersion=gd3bj guess=read geom=check nosymm
 integral(ultrafinegrid)
 ----------------------------------------------------------------------

 ------------------------------------------------------
 Candidate Structure: Conf:535 Charge calc in gas phase
 ------------------------------------------------------
 Structure from the checkpoint file:  "conf-535.chk"
 Charge =  1 Multiplicity = 1

                          Input orientation:
 ---------------------------------------------------------------------
 Center     Atomic      Atomic             Coordinates (Angstroms)
 Number     Number       Type             X           Y           Z
 ---------------------------------------------------------------------
      1          7           0       -8.428645   -4.658243    2.276415
      2          1           0       -8.907883   -4.911456    3.143607
      3          1           0       -9.141046   -4.382047    1.518078
      4          1           0       -7.874813   -5.458450    1.960956
      5          6           0       -7.622181   -3.383542    2.383589
      6          1           0       -7.698678   -2.999969    3.402025
      7          6           0       -8.354356   -2.451919    1.375414
      8          6           0       -6.147243   -3.616418    2.014036
      9          1           0       -5.800064   -4.599925    2.353617
     10          1           0       -6.009233   -3.555323    0.928639
     11          8           0       -9.291291   -2.945064    0.730242
     12          6           0       -5.275610   -2.558392    2.672400
     13          8           0       -5.745948   -1.643379    3.323357
     14          8           0       -3.985075   -2.761446    2.441837
     15          7           0       -7.907393   -1.203503    1.242739
     16          1           0       -7.093491   -0.934491    1.793236
     17          6           0       -8.107253   -0.509658   -0.026491
     18          1           0       -9.179776   -0.390128   -0.205990
     19          6           0       -7.502940   -1.388529   -1.151363
     20          6           0       -7.425254    0.892241    0.009683
     21          1           0       -8.030748    1.547487    0.643228
     22          1           0       -7.443742    1.308800   -1.002634
     23          8           0       -6.773437   -2.345045   -0.903080
     24          6           0       -6.012959    0.813175    0.542189
     25          6           0       -5.730808    1.202916    1.857384
     26          1           0       -6.495385    1.706187    2.443515
     27          6           0       -4.991613    0.206951   -0.202788
     28          1           0       -5.150605   -0.062809   -1.238510
     29          6           0       -4.506167    0.907562    2.451460
     30          1           0       -4.308172    1.154987    3.488048
     31          6           0       -3.771123   -0.113585    0.382209
     32          1           0       -3.018284   -0.649816   -0.187856
     33          8           0       -2.483613   -0.322661    2.433562
     34          1           0       -1.747059   -0.509149    1.824947
     35          6           0       -3.556489    0.191428    1.728140
     36          7           0       -7.808530   -0.981149   -2.410996
     37          1           0       -8.269122   -0.080084   -2.502526
     38          6           0       -6.864527   -1.221780   -3.499859
     39          1           0       -6.235225   -2.060964   -3.199794
     40          6           0       -6.038110    0.063016   -3.651853
     41          6           0       -7.555982   -1.541039   -4.847486
     42          1           0       -8.307866   -0.769436   -5.045616
     43          1           0       -8.077628   -2.498873   -4.750052
     44          8           0       -6.586633    1.165071   -3.572993
     45          6           0       -6.518197   -1.562542   -5.947007
     46          6           0       -6.258057   -0.411153   -6.702929
     47          1           0       -6.906557    0.454258   -6.595453
     48          6           0       -5.662233   -2.658362   -6.100186
     49          1           0       -5.843900   -3.567830   -5.531859
     50          6           0       -5.159641   -0.336080   -7.553706
     51          1           0       -4.952960    0.558906   -8.131051
     52          6           0       -4.558475   -2.599667   -6.948920
     53          1           0       -3.892606   -3.454699   -7.038953
     54          8           0       -3.198944   -1.284283   -8.469276
     55          1           0       -2.709452   -2.121394   -8.494115
     56          6           0       -4.292948   -1.427639   -7.662270
     57          7           0       -4.722235   -0.110304   -3.877257
     58          1           0       -4.345813   -1.039061   -4.047557
     59          6           0       -3.885662    0.963198   -4.378155
     60          1           0       -4.477149    1.573734   -5.067822
     61          6           0       -2.740534    0.283266   -5.135334
     62          6           0       -3.373144    1.879928   -3.232451
     63          1           0       -4.264089    2.265042   -2.726586
     64          1           0       -2.821304    1.266093   -2.512759
     65          8           0       -2.454153   -0.900136   -4.896408
     66          6           0       -2.507587    2.995206   -3.763572
     67          6           0       -1.122815    2.982426   -3.568414
     68          1           0       -0.682829    2.216407   -2.938507
     69          6           0       -3.063400    3.991083   -4.580030
     70          1           0       -4.140703    4.025640   -4.727088
     71          6           0       -0.300676    3.917143   -4.196743
     72          1           0        0.774199    3.870144   -4.057637
     73          6           0       -2.244691    4.930702   -5.209388
     74          1           0       -2.687677    5.694974   -5.841417
     75          6           0       -0.860172    4.888697   -5.027520
     76          1           0       -0.222411    5.611265   -5.527166
     77          7           0       -2.085176    1.037532   -6.033456
     78          1           0       -2.288938    2.030166   -6.066545
     79          6           0       -0.874667    0.581572   -6.728026
     80          1           0       -1.040087   -0.472993   -6.964653
     81          6           0        0.328528    0.702023   -5.767356
     82          6           0       -0.675845    1.390633   -7.999341
     83          1           0        0.231218    1.064516   -8.513535
     84          1           0       -1.533169    1.251114   -8.663177
     85          1           0       -0.553361    2.452536   -7.764548
     86          8           0        1.211427    1.547861   -5.916113
     87          7           0        0.294893   -0.169067   -4.730153
     88          1           0       -0.504404   -0.795735   -4.669211
     89          6           0        1.117138    0.023401   -3.537874
     90          1           0        1.306272    1.099900   -3.467311
     91          6           0        2.501218   -0.634661   -3.670923
     92          6           0        0.352441   -0.449193   -2.300436
     93          1           0       -0.632384    0.039103   -2.326767
     94          1           0        0.174321   -1.528438   -2.381974
     95          8           0        2.888460   -1.525373   -2.916895
     96          6           0        1.028032   -0.158938   -0.944522
     97          1           0        1.848270   -0.872774   -0.834603
     98          6           0        1.606357    1.258207   -0.835455
     99          1           0        0.839105    2.020850   -1.026370
    100          1           0        1.992110    1.428664    0.176553
    101          1           0        2.435304    1.419765   -1.531841
    102          6           0        0.019629   -0.408095    0.186992
    103          1           0       -0.783978    0.341060    0.135870
    104          1           0        0.507954   -0.323467    1.165313
    105          1           0       -0.424450   -1.409970    0.105640
    106          7           0        3.284775   -0.095609   -4.640770
    107          1           0        2.917100    0.722148   -5.123636
    108          6           0        4.730023   -0.249320   -4.536155
    109          1           0        4.985759   -1.306523   -4.664090
    110          6           0        5.139115    0.215543   -3.124835
    111          6           0        5.422456    0.599896   -5.600932
    112          1           0        6.506496    0.462352   -5.552806
    113          1           0        5.202667    1.659531   -5.434872
    114          1           0        5.079229    0.316476   -6.600647
    115          8           0        4.682344    1.254789   -2.646174
    116          7           0        6.011010   -0.570998   -2.451478
    117          1           0        6.253814   -1.495971   -2.786952
    118          6           0        6.205295   -0.347368   -1.036471
    119          1           0        6.376215    0.721034   -0.881604
    120          6           0        7.387738   -1.164943   -0.545781
    121          6           0        4.928709   -0.782322   -0.238649
    122          1           0        4.860387   -1.873841   -0.272021
    123          1           0        4.072491   -0.394815   -0.794501
    124          8           0        7.717135   -2.222154   -1.097028
    125          6           0        4.896096   -0.320407    1.176238
    126          6           0        5.001820   -0.970353    2.383605
    127          1           0        5.124684   -2.032254    2.550912
    128          7           0        4.767543    1.019335    1.519526
    129          1           0        4.641817    1.779625    0.864974
    130          6           0        4.797831    1.113547    2.883295
    131          1           0        4.729859    2.043380    3.432107
    132          7           0        4.937403   -0.076461    3.434450
    133          7           0        7.953772   -0.691624    0.577637
    134          1           0        7.628820    0.183818    0.979540
    135          6           0        8.652676   -1.520284    1.555194
    136          1           0        8.246799   -2.538296    1.503877
    137          6           0        8.288978   -0.871231    2.900139
    138          6           0       10.164784   -1.625786    1.252357
    139          1           0       10.517209   -0.603075    1.041274
    140          8           0        8.069575    0.338892    2.954683
    141          6           0       10.967911   -2.204338    2.410867
    142          1           0       10.947928   -1.548955    3.286734
    143          1           0       10.582920   -3.192261    2.692421
    144          1           0       12.005218   -2.336479    2.091272
    145          8           0       10.362860   -2.471435    0.132790
    146          1           0        9.584400   -2.416332   -0.456558
    147          7           0        8.177828   -1.708896    3.949716
    148          1           0        8.348943   -2.690445    3.785925
    149          6           0        7.536814   -1.347090    5.215106
    150          1           0        6.454387   -1.329470    5.044138
    151          6           0        7.956725    0.062678    5.665343
    152          6           0        7.837203   -2.408913    6.298873
    153          1           0        7.427051   -1.992295    7.228382
    154          8           0        9.110552    0.348062    5.976649
    155          6           0        7.080537   -3.713250    6.004962
    156          1           0        7.444875   -4.203252    5.091546
    157          1           0        6.005497   -3.537465    5.885005
    158          1           0        7.220667   -4.428793    6.822085
    159          6           0        9.335230   -2.666110    6.505920
    160          1           0        9.784349   -3.139637    5.624212
    161          1           0        9.485060   -3.344448    7.353117
    162          1           0        9.866105   -1.731530    6.691226
    163          7           0        6.909775    0.919462    5.765279
    164          1           0        6.067983    0.701063    5.234529
    165          6           0        7.153136    2.324909    6.062762
    166          1           0        7.761169    2.359377    6.966567
    167          6           0        5.794013    2.987862    6.299989
    168          6           0        7.895756    3.061424    4.894542
    169          1           0        7.922642    2.361157    4.058120
    170          1           0        7.301480    3.922350    4.557836
    171          8           0        5.686682    3.819417    7.329223
    172          6           0        9.329751    3.511016    5.224259
    173          1           0        9.928272    3.506542    4.303931
    174          1           0        9.789811    2.778973    5.894677
    175          6           0        9.428069    4.921460    5.819236
    176          1           0        9.080474    5.664014    5.092560
    177          1           0       10.473187    5.166845    6.034064
    178          7           0        8.624916    5.138823    7.030373
    179          1           0        7.629288    5.215815    6.854475
    180          7           0       10.185550    4.291365    8.534082
    181          1           0       10.377188    3.886873    9.439571
    182          1           0       10.816238    5.036212    8.269187
    183          7           0        7.849047    3.966952    8.856627
    184          1           0        8.095844    3.592692    9.769586
    185          1           0        6.483033    3.785254    7.978287
    186          6           0        8.859755    4.443811    8.195335
    187          8           0        4.868576    2.809038    5.525712
    188          1           0       -3.454309   -1.989400    2.762196
 ---------------------------------------------------------------------

 SCF Done:  E(RB3LYP) =  -4648.92266926     A.U. after    1 cycles

 Alpha  occ. eigenvalues --  -19.30098 -19.27592 -19.26788 -19.25647 -19.25172
 Alpha  occ. eigenvalues --  -19.22412 -19.20692 -19.20312 -19.18997 -19.18581
 Alpha  occ. eigenvalues --  -19.17421 -19.16951 -19.16515 -19.16323 -19.15605
 Alpha  occ. eigenvalues --  -19.14884 -19.13682 -14.59460 -14.48459 -14.45586
 Alpha  occ. eigenvalues --  -14.44466 -14.44193 -14.43238 -14.42067 -14.40926
 Alpha  occ. eigenvalues --  -14.40824 -14.40648 -14.40330 -14.39939 -14.38974
 Alpha  occ. eigenvalues --  -14.37384 -14.35519 -14.34724 -10.44234 -10.43159
 Alpha  occ. eigenvalues --  -10.40395 -10.39134 -10.37384 -10.37025 -10.35193
 Alpha  occ. eigenvalues --  -10.34698 -10.34109 -10.34062 -10.33979 -10.33778
 Alpha  occ. eigenvalues --  -10.33571 -10.33509 -10.33326 -10.33304 -10.32120
 Alpha  occ. eigenvalues --  -10.32076 -10.31636 -10.30844 -10.30436 -10.29627
 Alpha  occ. eigenvalues --  -10.29022 -10.28686 -10.28499 -10.28315 -10.28042
 Alpha  occ. eigenvalues --  -10.27988 -10.27983 -10.27689 -10.27538 -10.27447
 Alpha  occ. eigenvalues --  -10.27395 -10.27087 -10.26907 -10.26579 -10.26542
 Alpha  occ. eigenvalues --  -10.26479 -10.26389 -10.26254 -10.26223 -10.26206
 Alpha  occ. eigenvalues --  -10.25897 -10.25724 -10.25720 -10.25640 -10.25387
 Alpha  occ. eigenvalues --  -10.25325 -10.25320 -10.25258 -10.25099 -10.25088
 Alpha  occ. eigenvalues --  -10.25057 -10.24688 -10.24217 -10.23932 -10.23458
 Alpha  occ. eigenvalues --  -10.23415 -10.22797 -10.21942 -10.21097 -10.20874
 Alpha  occ. eigenvalues --  -10.20517 -10.19979  -1.21742  -1.19333  -1.15069
 Alpha  occ. eigenvalues --   -1.14365  -1.13323  -1.13118  -1.13099  -1.12789
 Alpha  occ. eigenvalues --   -1.11884  -1.10513  -1.10230  -1.09549  -1.09045
 Alpha  occ. eigenvalues --   -1.08464  -1.07741  -1.05767  -1.05453  -1.05200
 Alpha  occ. eigenvalues --   -1.03569  -1.03199  -1.02455  -1.02189  -1.01240
 Alpha  occ. eigenvalues --   -1.00932  -0.98920  -0.97647  -0.97480  -0.97257
 Alpha  occ. eigenvalues --   -0.96941  -0.94925  -0.94358  -0.93652  -0.93515
 Alpha  occ. eigenvalues --   -0.92987  -0.92499  -0.90992  -0.89873  -0.89411
 Alpha  occ. eigenvalues --   -0.87860  -0.87496  -0.86251  -0.84956  -0.84378
 Alpha  occ. eigenvalues --   -0.84141  -0.84097  -0.83866  -0.82513  -0.82347
 Alpha  occ. eigenvalues --   -0.82089  -0.81704  -0.81139  -0.81125  -0.80978
 Alpha  occ. eigenvalues --   -0.80211  -0.79395  -0.77787  -0.77279  -0.75750
 Alpha  occ. eigenvalues --   -0.75199  -0.74918  -0.74619  -0.74404  -0.73788
 Alpha  occ. eigenvalues --   -0.73484  -0.73410  -0.72878  -0.71976  -0.71916
 Alpha  occ. eigenvalues --   -0.71537  -0.71153  -0.70700  -0.70010  -0.69885
 Alpha  occ. eigenvalues --   -0.69565  -0.68890  -0.68135  -0.68041  -0.67506
 Alpha  occ. eigenvalues --   -0.67432  -0.66380  -0.66164  -0.66068  -0.65714
 Alpha  occ. eigenvalues --   -0.65480  -0.65392  -0.64903  -0.64631  -0.64496
 Alpha  occ. eigenvalues --   -0.63995  -0.63591  -0.63477  -0.63038  -0.62961
 Alpha  occ. eigenvalues --   -0.62730  -0.62647  -0.62131  -0.62044  -0.61894
 Alpha  occ. eigenvalues --   -0.61611  -0.61292  -0.60924  -0.60380  -0.59935
 Alpha  occ. eigenvalues --   -0.59651  -0.59378  -0.59170  -0.58614  -0.58592
 Alpha  occ. eigenvalues --   -0.58389  -0.58089  -0.57615  -0.57242  -0.57134
 Alpha  occ. eigenvalues --   -0.56926  -0.56733  -0.56253  -0.56066  -0.55874
 Alpha  occ. eigenvalues --   -0.55824  -0.55677  -0.55195  -0.54840  -0.54725
 Alpha  occ. eigenvalues --   -0.54512  -0.54132  -0.53989  -0.53885  -0.53497
 Alpha  occ. eigenvalues --   -0.53261  -0.53223  -0.53022  -0.52692  -0.52572
 Alpha  occ. eigenvalues --   -0.52549  -0.52251  -0.52189  -0.51977  -0.51692
 Alpha  occ. eigenvalues --   -0.51616  -0.51525  -0.51214  -0.51160  -0.51008
 Alpha  occ. eigenvalues --   -0.50751  -0.50662  -0.50475  -0.50447  -0.50115
 Alpha  occ. eigenvalues --   -0.49803  -0.49607  -0.49543  -0.49392  -0.49269
 Alpha  occ. eigenvalues --   -0.48807  -0.48647  -0.48527  -0.48519  -0.48145
 Alpha  occ. eigenvalues --   -0.48124  -0.48058  -0.48028  -0.47929  -0.47826
 Alpha  occ. eigenvalues --   -0.47669  -0.47453  -0.47316  -0.47148  -0.46999
 Alpha  occ. eigenvalues --   -0.46961  -0.46710  -0.46475  -0.46267  -0.46042
 Alpha  occ. eigenvalues --   -0.45988  -0.45898  -0.45771  -0.45725  -0.45622
 Alpha  occ. eigenvalues --   -0.45462  -0.45113  -0.44931  -0.44826  -0.44768
 Alpha  occ. eigenvalues --   -0.44461  -0.44375  -0.44266  -0.44241  -0.44004
 Alpha  occ. eigenvalues --   -0.43959  -0.43790  -0.43609  -0.43479  -0.43176
 Alpha  occ. eigenvalues --   -0.43135  -0.43062  -0.42984  -0.42852  -0.42670
 Alpha  occ. eigenvalues --   -0.42621  -0.42542  -0.42383  -0.42188  -0.42036
 Alpha  occ. eigenvalues --   -0.41963  -0.41788  -0.41469  -0.41432  -0.41350
 Alpha  occ. eigenvalues --   -0.41115  -0.40982  -0.40964  -0.40772  -0.40732
 Alpha  occ. eigenvalues --   -0.40555  -0.39985  -0.39833  -0.39682  -0.39562
 Alpha  occ. eigenvalues --   -0.39393  -0.39377  -0.39296  -0.38960  -0.38718
 Alpha  occ. eigenvalues --   -0.38345  -0.37808  -0.37558  -0.37261  -0.37191
 Alpha  occ. eigenvalues --   -0.36869  -0.36594  -0.36315  -0.36071  -0.36038
 Alpha  occ. eigenvalues --   -0.36034  -0.34709  -0.34244  -0.33945  -0.33568
 Alpha  occ. eigenvalues --   -0.33505  -0.32727  -0.32541  -0.32422  -0.32239
 Alpha  occ. eigenvalues --   -0.32104  -0.31811  -0.31678  -0.31572  -0.31433
 Alpha  occ. eigenvalues --   -0.31331  -0.31127  -0.30833  -0.30582  -0.30435
 Alpha  occ. eigenvalues --   -0.30301  -0.29869  -0.29716  -0.29166  -0.29006
 Alpha  occ. eigenvalues --   -0.28974  -0.28244  -0.27820  -0.27407  -0.26497
 Alpha  occ. eigenvalues --   -0.26093
 Alpha virt. eigenvalues --   -0.12128  -0.11007  -0.10413  -0.09870  -0.08886
 Alpha virt. eigenvalues --   -0.08501  -0.07999  -0.07376  -0.07015  -0.06653
 Alpha virt. eigenvalues --   -0.06380  -0.06188  -0.06108  -0.04698  -0.04302

 Mulliken charges:
               1
     1  N   -0.768938
     2  H    0.415971
     3  H    0.438840
     4  H    0.412976
     5  C   -0.102869
     6  H    0.242107
     7  C    0.649233
     8  C   -0.415818
     9  H    0.195684
    10  H    0.271024
    11  O   -0.538528
    12  C    0.624673
    13  O   -0.467071
    14  O   -0.578785
    15  N   -0.600248
    16  H    0.400332
    17  C   -0.073396
    18  H    0.200811
    19  C    0.645806
    20  C   -0.399820
    21  H    0.179176
    22  H    0.201594
    23  O   -0.545041
    24  C    0.111865
    25  C   -0.203888
    26  H    0.149038
    27  C   -0.171648
    28  H    0.157714
    29  C   -0.113851
    30  H    0.166325
    31  C   -0.189299
    32  H    0.149848
    33  O   -0.677764
    34  H    0.453504
    35  C    0.286272
    36  N   -0.581755
    37  H    0.348913
    38  C   -0.073396
    39  H    0.181870
    40  C    0.612639
    41  C   -0.352056
    42  H    0.164728
    43  H    0.168890
    44  O   -0.556435
    45  C    0.140956
    46  C   -0.187593
    47  H    0.148489
    48  C   -0.204979
    49  H    0.133906
    50  C   -0.169121
    51  H    0.150867
    52  C   -0.169588
    53  H    0.135062
    54  O   -0.644735
    55  H    0.416084
    56  C    0.361438
    57  N   -0.597941
    58  H    0.367671
    59  C   -0.038439
    60  H    0.181764
    61  C    0.641174
    62  C   -0.359137
    63  H    0.189404
    64  H    0.156830
    65  O   -0.585135
    66  C    0.139015
    67  C   -0.191936
    68  H    0.141199
    69  C   -0.217178
    70  H    0.144260
    71  C   -0.118810
    72  H    0.159090
    73  C   -0.130186
    74  H    0.147525
    75  C   -0.135982
    76  H    0.150665
    77  N   -0.590061
    78  H    0.358552
    79  C   -0.060046
    80  H    0.176116
    81  C    0.637401
    82  C   -0.468544
    83  H    0.175319
    84  H    0.170936
    85  H    0.171031
    86  O   -0.542219
    87  N   -0.627679
    88  H    0.376527
    89  C   -0.075601
    90  H    0.186398
    91  C    0.645641
    92  C   -0.296897
    93  H    0.130441
    94  H    0.153905
    95  O   -0.540988
    96  C   -0.084999
    97  H    0.183291
    98  C   -0.499290
    99  H    0.139460
   100  H    0.146461
   101  H    0.196686
   102  C   -0.502001
   103  H    0.136678
   104  H    0.168652
   105  H    0.141255
   106  N   -0.608257
   107  H    0.373024
   108  C   -0.022348
   109  H    0.158781
   110  C    0.638728
   111  C   -0.480477
   112  H    0.170249
   113  H    0.176085
   114  H    0.167857
   115  O   -0.560683
   116  N   -0.599097
   117  H    0.352317
   118  C   -0.048656
   119  H    0.172784
   120  C    0.620917
   121  C   -0.378435
   122  H    0.173608
   123  H    0.207515
   124  O   -0.558465
   125  C    0.313115
   126  C   -0.082993
   127  H    0.127765
   128  N   -0.617851
   129  H    0.345948
   130  C    0.215412
   131  H    0.214924
   132  N   -0.468825
   133  N   -0.602974
   134  H    0.365343
   135  C   -0.106358
   136  H    0.160774
   137  C    0.648582
   138  C    0.194724
   139  H    0.126287
   140  O   -0.546028
   141  C   -0.473875
   142  H    0.170012
   143  H    0.134409
   144  H    0.172644
   145  O   -0.659376
   146  H    0.422867
   147  N   -0.622644
   148  H    0.337383
   149  C   -0.024268
   150  H    0.181320
   151  C    0.636328
   152  C   -0.119365
   153  H    0.149529
   154  O   -0.541876
   155  C   -0.454661
   156  H    0.128306
   157  H    0.150530
   158  H    0.157725
   159  C   -0.453218
   160  H    0.129109
   161  H    0.139642
   162  H    0.199405
   163  N   -0.645403
   164  H    0.392309
   165  C   -0.029937
   166  H    0.176361
   167  C    0.562309
   168  C   -0.321374
   169  H    0.213085
   170  H    0.132359
   171  O   -0.609969
   172  C   -0.272406
   173  H    0.138908
   174  H    0.192197
   175  C   -0.156764
   176  H    0.154751
   177  H    0.144278
   178  N   -0.586378
   179  H    0.336207
   180  N   -0.740785
   181  H    0.338648
   182  H    0.345117
   183  N   -0.741072
   184  H    0.290469
   185  H    0.462923
   186  C    0.670169
   187  O   -0.486092
   188  H    0.456587
 Sum of Mulliken charges =   1.00000

 Dipole moment (field-independent basis, Debye):
    X=            -26.5186    Y=            -10.6952    Z=              2.2731  Tot=             28.6843
 Quadrupole moment (field-independent basis, Debye-Ang):
   XX=           -284.1056   YY=           -466.5324   ZZ=           -438.4812
   XY=            152.2136   XZ=             22.8005   YZ=            -31.8852

 Normal termination of Gaussian 16 at Wed Aug 10 03:58:04 2022.
