 Gaussian 16, Revision C.01,
 Gaussian 16:  ES64L-G16RevC.01  3-Jul-2019

 ----------------------------------------------------------------------
 # B3LYP/6-31G* empiricaldispersion=gd3 guess=read geom=check nosymm in
 tegral(ultrafinegrid)
 ----------------------------------------------------------------------

 ------------------------------------------------------
 Candidate Structure: Conf:727 Charge calc in gas phase
 ------------------------------------------------------
 Structure from the checkpoint file:  "conf-727.chk"
 Charge =  1 Multiplicity = 1

                          Input orientation:
 ---------------------------------------------------------------------
 Center     Atomic      Atomic             Coordinates (Angstroms)
 Number     Number       Type             X           Y           Z
 ---------------------------------------------------------------------
      1          7           0       -4.459999   -1.382937    1.193027
      2          1           0       -4.996331   -0.857872    0.467454
      3          1           0       -3.950566   -2.135378    0.693782
      4          1           0       -5.102216   -1.778495    1.885931
      5          6           0       -3.383722   -0.509947    1.807130
      6          1           0       -3.853819    0.444002    2.061052
      7          6           0       -2.367424   -0.392297    0.656900
      8          6           0       -2.770654   -1.210899    3.023790
      9          1           0       -3.565051   -1.485863    3.730032
     10          1           0       -2.282648   -2.132970    2.691991
     11          8           0       -2.160309   -1.401712   -0.024395
     12          6           0       -1.733037   -0.331934    3.733282
     13          1           0       -2.190000    0.529145    4.230136
     14          1           0       -0.988760    0.034350    3.016318
     15          6           0       -0.936800   -1.146178    4.736300
     16          8           0       -0.714213   -2.335838    4.634102
     17          8           0       -0.470905   -0.381265    5.734062
     18          7           0       -1.799599    0.799719    0.459801
     19          1           0       -2.113268    1.595024    1.002530
     20          6           0       -1.056550    1.099062   -0.775603
     21          1           0       -1.289010    0.282198   -1.463457
     22          6           0        0.446472    1.032108   -0.426016
     23          6           0       -1.509015    2.454586   -1.368114
     24          1           0       -1.362010    2.403254   -2.453523
     25          1           0       -0.832055    3.232909   -1.002138
     26          8           0        1.152723    2.038273   -0.362031
     27          6           0       -2.931859    2.802407   -1.014803
     28          6           0       -3.340313    3.973371   -0.422172
     29          1           0       -2.761799    4.856628   -0.187066
     30          6           0       -4.109000    1.964934   -1.096320
     31          6           0       -5.188122    2.695384   -0.515448
     32          6           0       -4.355133    0.661261   -1.561284
     33          1           0       -3.569097    0.082592   -2.036540
     34          7           0       -4.688448    3.917079   -0.125966
     35          1           0       -5.232593    4.679051    0.251042
     36          6           0       -6.679483    0.854925   -0.815289
     37          1           0       -7.669192    0.414768   -0.736280
     38          6           0       -6.470184    2.153999   -0.365002
     39          1           0       -7.276177    2.730210    0.080058
     40          6           0       -5.631830    0.113313   -1.413232
     41          1           0       -5.844549   -0.868763   -1.830461
     42          7           0        0.858474   -0.216431   -0.120779
     43          1           0        0.172711   -0.963877   -0.132752
     44          6           0        2.075008   -0.471425    0.658454
     45          1           0        2.228077    0.396165    1.312489
     46          6           0        3.290211   -0.617489   -0.287221
     47          6           0        1.875829   -1.726987    1.514806
     48          1           0        1.881296   -2.598681    0.846524
     49          8           0        3.828280   -1.697636   -0.499625
     50          6           0        2.975684   -1.879807    2.558809
     51          1           0        3.948719   -1.980475    2.071872
     52          1           0        2.803743   -2.779307    3.161450
     53          1           0        2.990029   -1.012486    3.228837
     54          8           0        0.579448   -1.586803    2.126447
     55          1           0        0.452548   -2.322538    2.747627
     56          7           0        3.661096    0.547951   -0.869368
     57          1           0        3.136811    1.388164   -0.647263
     58          6           0        4.716238    0.605776   -1.860885
     59          1           0        4.689972   -0.331728   -2.429015
     60          6           0        6.126631    0.670086   -1.266313
     61          6           0        4.512330    1.784464   -2.826987
     62          1           0        5.340456    1.743994   -3.540310
     63          1           0        4.614017    2.730897   -2.275338
     64          8           0        7.121187    0.749683   -1.950947
     65          6           0        3.167040    1.746586   -3.559206
     66          1           0        3.012555    0.756640   -4.006109
     67          1           0        2.346029    1.911282   -2.849005
     68          6           0        3.069998    2.801869   -4.673614
     69          1           0        2.063394    2.781112   -5.102216
     70          1           0        3.214411    3.807837   -4.261317
     71          7           0        4.048436    2.641143   -5.756024
     72          1           0        4.975053    2.966896   -5.507749
     73          7           0        2.832799    0.953385   -6.824844
     74          1           0        2.930385    0.167611   -7.459546
     75          1           0        2.217503    1.663107   -7.211270
     76          7           0        5.145116    0.797080   -6.853532
     77          1           0        5.992880    1.175584   -6.426509
     78          6           0        4.101572    1.443824   -6.486637
     79          8           0        6.151382    0.637277    0.083645
     80          1           0        0.074388   -0.949148    6.313093
     81          1           0        7.094798    0.658419    0.334320
 ---------------------------------------------------------------------

 SCF Done:  E(RB3LYP) =  -2054.02041124     A.U. after    1 cycles

 Alpha  occ. eigenvalues --  -19.30760 -19.27364 -19.25458 -19.25216 -19.23952
 Alpha  occ. eigenvalues --  -19.22707 -19.19323 -19.18404 -14.61069 -14.51204
 Alpha  occ. eigenvalues --  -14.49898 -14.46036 -14.42396 -14.39490 -14.38317
 Alpha  occ. eigenvalues --  -14.32712 -10.44460 -10.43766 -10.41798 -10.39479
 Alpha  occ. eigenvalues --  -10.37547 -10.35770 -10.35655 -10.34677 -10.34350
 Alpha  occ. eigenvalues --  -10.33862 -10.32776 -10.32570 -10.32052 -10.31820
 Alpha  occ. eigenvalues --  -10.31360 -10.31239 -10.31075 -10.30943 -10.30860
 Alpha  occ. eigenvalues --  -10.30769 -10.30379 -10.30016 -10.27749 -10.25494
 Alpha  occ. eigenvalues --  -10.25299 -10.24375  -1.21806  -1.20018  -1.16212
 Alpha  occ. eigenvalues --   -1.15139  -1.14291  -1.12861  -1.11098  -1.10212
 Alpha  occ. eigenvalues --   -1.09950  -1.07788  -1.07108  -1.02434  -1.01694
 Alpha  occ. eigenvalues --   -0.99393  -0.96372  -0.95773  -0.93075  -0.92500
 Alpha  occ. eigenvalues --   -0.89451  -0.88451  -0.87328  -0.86668  -0.85830
 Alpha  occ. eigenvalues --   -0.85299  -0.84078  -0.80613  -0.80226  -0.79084
 Alpha  occ. eigenvalues --   -0.76563  -0.75214  -0.74539  -0.74104  -0.73388
 Alpha  occ. eigenvalues --   -0.73096  -0.71447  -0.70878  -0.70368  -0.68803
 Alpha  occ. eigenvalues --   -0.68151  -0.67209  -0.66363  -0.65981  -0.65473
 Alpha  occ. eigenvalues --   -0.65211  -0.64778  -0.63552  -0.62353  -0.62185
 Alpha  occ. eigenvalues --   -0.61326  -0.60590  -0.60556  -0.59831  -0.59069
 Alpha  occ. eigenvalues --   -0.58979  -0.58630  -0.58296  -0.57242  -0.56595
 Alpha  occ. eigenvalues --   -0.55600  -0.55511  -0.55296  -0.55032  -0.54872
 Alpha  occ. eigenvalues --   -0.54439  -0.53994  -0.53792  -0.53247  -0.52733
 Alpha  occ. eigenvalues --   -0.52334  -0.52007  -0.51476  -0.51261  -0.50958
 Alpha  occ. eigenvalues --   -0.50835  -0.50471  -0.50110  -0.49779  -0.49688
 Alpha  occ. eigenvalues --   -0.49417  -0.49246  -0.48744  -0.48525  -0.48320
 Alpha  occ. eigenvalues --   -0.47184  -0.47007  -0.46665  -0.46021  -0.45947
 Alpha  occ. eigenvalues --   -0.45745  -0.45464  -0.44947  -0.44616  -0.43086
 Alpha  occ. eigenvalues --   -0.42905  -0.42810  -0.41801  -0.41652  -0.41413
 Alpha  occ. eigenvalues --   -0.40759  -0.40514  -0.39797  -0.39498  -0.39027
 Alpha  occ. eigenvalues --   -0.37212  -0.36871  -0.36384  -0.36012  -0.34982
 Alpha  occ. eigenvalues --   -0.34899  -0.32621  -0.31558  -0.30959  -0.30875
 Alpha  occ. eigenvalues --   -0.29786  -0.27029
 Alpha virt. eigenvalues --   -0.14558  -0.13276  -0.11504  -0.10440  -0.09890
 Alpha virt. eigenvalues --   -0.09167  -0.06328  -0.05605  -0.04905  -0.04780
 Alpha virt. eigenvalues --   -0.04590  -0.03651  -0.02743  -0.02269  -0.01777

 Mulliken charges:
               1
     1  N   -0.751709
     2  H    0.413319
     3  H    0.422428
     4  H    0.409507
     5  C   -0.123043
     6  H    0.203257
     7  C    0.672434
     8  C   -0.282929
     9  H    0.171469
    10  H    0.211737
    11  O   -0.550771
    12  C   -0.380650
    13  H    0.183924
    14  H    0.229087
    15  C    0.610890
    16  O   -0.473537
    17  O   -0.548766
    18  N   -0.573575
    19  H    0.350571
    20  C   -0.095507
    21  H    0.207717
    22  C    0.647624
    23  C   -0.381521
    24  H    0.191309
    25  H    0.199199
    26  O   -0.533961
    27  C    0.033192
    28  C    0.004806
    29  H    0.186514
    30  C    0.083712
    31  C    0.315036
    32  C   -0.228356
    33  H    0.162762
    34  N   -0.679201
    35  H    0.351808
    36  C   -0.157474
    37  H    0.160016
    38  C   -0.159610
    39  H    0.160088
    40  C   -0.241491
    41  H    0.160257
    42  N   -0.596745
    43  H    0.369644
    44  C   -0.077930
    45  H    0.175731
    46  C    0.650787
    47  C    0.121672
    48  H    0.163269
    49  O   -0.521368
    50  C   -0.483324
    51  H    0.201365
    52  H    0.153859
    53  H    0.148455
    54  O   -0.687059
    55  H    0.420593
    56  N   -0.623526
    57  H    0.367652
    58  C   -0.038473
    59  H    0.211105
    60  C    0.600623
    61  C   -0.301949
    62  H    0.174469
    63  H    0.141327
    64  O   -0.457412
    65  C   -0.275175
    66  H    0.171181
    67  H    0.131374
    68  C   -0.140063
    69  H    0.145643
    70  H    0.146156
    71  N   -0.580206
    72  H    0.315820
    73  N   -0.738725
    74  H    0.339108
    75  H    0.321076
    76  N   -0.623101
    77  H    0.271179
    78  C    0.539099
    79  O   -0.564651
    80  H    0.431205
    81  H    0.416752
 Sum of Mulliken charges =   1.00000

 Dipole moment (field-independent basis, Debye):
    X=            -21.4729    Y=              4.8692    Z=              9.9818  Tot=             24.1750
 Quadrupole moment (field-independent basis, Debye-Ang):
   XX=           -152.3030   YY=           -208.3800   ZZ=           -218.8939
   XY=              5.5489   XZ=              3.6803   YZ=            -15.9978

 Normal termination of Gaussian 16 at Fri May 13 04:40:08 2022.
