 Gaussian 16, Revision C.01,
 Gaussian 16:  ES64L-G16RevC.01  3-Jul-2019

 ----------------------------------------------------------------------
 # B3LYP/6-31G* empiricaldispersion=gd3 guess=read geom=check nosymm in
 tegral(ultrafinegrid)
 ----------------------------------------------------------------------

 ------------------------------------------------------
 Candidate Structure: Conf:123 Charge calc in gas phase
 ------------------------------------------------------
 Structure from the checkpoint file:  "conf-123.chk"
 Charge =  1 Multiplicity = 1

                          Input orientation:
 ---------------------------------------------------------------------
 Center     Atomic      Atomic             Coordinates (Angstroms)
 Number     Number       Type             X           Y           Z
 ---------------------------------------------------------------------
      1          7           0       -4.771792    2.610053    0.959346
      2          1           0       -4.527676    3.154611    0.107630
      3          1           0       -5.159642    1.689698    0.660567
      4          1           0       -5.468091    3.134059    1.496424
      5          6           0       -3.545457    2.256742    1.770292
      6          1           0       -2.818334    3.056425    1.614906
      7          6           0       -3.093670    0.920980    1.130409
      8          6           0       -3.915307    2.092146    3.248541
      9          1           0       -4.374895    3.022943    3.606910
     10          1           0       -4.656674    1.292677    3.350266
     11          8           0       -3.972273    0.159197    0.721603
     12          6           0       -2.683635    1.770215    4.110465
     13          1           0       -1.910478    2.537437    4.010506
     14          1           0       -2.244932    0.814335    3.798472
     15          6           0       -3.004465    1.659454    5.591959
     16          8           0       -2.335317    2.130578    6.477344
     17          8           0       -4.133325    0.938688    5.797368
     18          7           0       -1.774812    0.723350    1.063253
     19          1           0       -1.114295    1.369584    1.491056
     20          6           0       -1.125779   -0.357795    0.338383
     21          1           0       -1.677975   -1.287192    0.501761
     22          6           0        0.312906   -0.410191    0.881882
     23          6           0       -1.017130   -0.053227   -1.197018
     24          1           0       -0.698045   -0.972353   -1.700216
     25          1           0       -0.203414    0.669203   -1.327889
     26          8           0        0.737667    0.520208    1.581052
     27          6           0       -2.267923    0.476334   -1.820349
     28          6           0       -3.234877   -0.236115   -2.485897
     29          1           0       -3.259389   -1.285497   -2.745598
     30          6           0       -2.742317    1.835277   -1.746194
     31          6           0       -4.022552    1.867749   -2.371930
     32          6           0       -2.211577    3.026216   -1.219079
     33          1           0       -1.218924    3.037646   -0.777330
     34          7           0       -4.291355    0.588856   -2.807465
     35          1           0       -5.086182    0.318832   -3.367919
     36          6           0       -4.242335    4.198960   -1.901858
     37          1           0       -4.793746    5.131399   -1.975321
     38          6           0       -4.783300    3.038677   -2.454781
     39          1           0       -5.750769    3.051459   -2.948132
     40          6           0       -2.961962    4.195348   -1.297410
     41          1           0       -2.548831    5.127765   -0.924573
     42          7           0        1.072663   -1.424345    0.443064
     43          1           0        0.711255   -2.115870   -0.208484
     44          6           0        2.535691   -1.440563    0.547991
     45          1           0        2.817245   -1.103996    1.550047
     46          6           0        3.104898   -0.477405   -0.525393
     47          6           0        3.010868   -2.886167    0.285768
     48          1           0        4.104075   -2.858662    0.184597
     49          8           0        3.555771   -0.892159   -1.596120
     50          6           0        2.618734   -3.845650    1.399379
     51          1           0        3.081520   -3.552685    2.347598
     52          1           0        2.950465   -4.854898    1.142310
     53          1           0        1.532199   -3.867105    1.534102
     54          8           0        2.410548   -3.345685   -0.925009
     55          1           0        2.822404   -2.806140   -1.628254
     56          7           0        3.006338    0.832565   -0.206034
     57          1           0        2.579423    1.073085    0.682198
     58          6           0        3.416628    1.915325   -1.087806
     59          1           0        4.155665    1.498084   -1.781968
     60          6           0        4.135701    3.029095   -0.324788
     61          6           0        2.238830    2.501469   -1.901019
     62          1           0        2.500191    3.516964   -2.208079
     63          1           0        1.369804    2.591127   -1.232975
     64          8           0        4.459280    4.076043   -0.834435
     65          6           0        1.887691    1.653107   -3.131316
     66          1           0        2.718186    1.711313   -3.848597
     67          1           0        1.810408    0.594339   -2.859456
     68          6           0        0.581744    2.074283   -3.811431
     69          1           0        0.414502    1.456927   -4.709268
     70          1           0       -0.254627    1.872043   -3.134812
     71          7           0        0.559753    3.495710   -4.112868
     72          1           0        1.439807    3.887685   -4.424224
     73          7           0       -0.372751    5.412363   -5.055131
     74          1           0       -1.200008    5.769993   -5.518744
     75          1           0        0.457299    5.548393   -5.622044
     76          7           0       -1.794166    3.649928   -4.577396
     77          1           0       -1.839070    2.730081   -4.144448
     78          6           0       -0.592904    4.110263   -4.598201
     79          8           0        4.372375    2.724224    0.970889
     80          1           0       -4.265753    0.883189    6.763480
     81          1           0        4.845566    3.487809    1.354088
 ---------------------------------------------------------------------

 SCF Done:  E(RB3LYP) =  -2054.03375171     A.U. after    1 cycles

 Alpha  occ. eigenvalues --  -19.29455 -19.28338 -19.26021 -19.24071 -19.23617
 Alpha  occ. eigenvalues --  -19.22319 -19.22188 -19.21369 -14.59141 -14.49666
 Alpha  occ. eigenvalues --  -14.49084 -14.47632 -14.45262 -14.41845 -14.39949
 Alpha  occ. eigenvalues --  -14.34177 -10.43278 -10.42187 -10.40932 -10.40591
 Alpha  occ. eigenvalues --  -10.40163 -10.38353 -10.36100 -10.34172 -10.34098
 Alpha  occ. eigenvalues --  -10.33371 -10.32985 -10.32957 -10.32784 -10.32519
 Alpha  occ. eigenvalues --  -10.32252 -10.31475 -10.30564 -10.30247 -10.30069
 Alpha  occ. eigenvalues --  -10.29897 -10.29820 -10.29813 -10.29298 -10.27640
 Alpha  occ. eigenvalues --  -10.27143 -10.25366  -1.20214  -1.19091  -1.18635
 Alpha  occ. eigenvalues --   -1.15950  -1.13378  -1.13193  -1.11383  -1.10043
 Alpha  occ. eigenvalues --   -1.09872  -1.09094  -1.06472  -1.03940  -1.03761
 Alpha  occ. eigenvalues --   -1.01958  -0.95606  -0.95366  -0.94820  -0.92230
 Alpha  occ. eigenvalues --   -0.89961  -0.89265  -0.88241  -0.86606  -0.85595
 Alpha  occ. eigenvalues --   -0.84951  -0.83298  -0.82997  -0.79754  -0.79438
 Alpha  occ. eigenvalues --   -0.77294  -0.75869  -0.73637  -0.73247  -0.72639
 Alpha  occ. eigenvalues --   -0.72018  -0.70907  -0.70630  -0.70357  -0.69773
 Alpha  occ. eigenvalues --   -0.68941  -0.68351  -0.68183  -0.67086  -0.65689
 Alpha  occ. eigenvalues --   -0.65147  -0.64866  -0.63084  -0.62872  -0.61465
 Alpha  occ. eigenvalues --   -0.61123  -0.60885  -0.60091  -0.59376  -0.59148
 Alpha  occ. eigenvalues --   -0.58652  -0.58481  -0.57972  -0.57496  -0.57019
 Alpha  occ. eigenvalues --   -0.56891  -0.56572  -0.55817  -0.55421  -0.55221
 Alpha  occ. eigenvalues --   -0.54735  -0.54673  -0.54525  -0.54251  -0.54167
 Alpha  occ. eigenvalues --   -0.53252  -0.52880  -0.52506  -0.52447  -0.51762
 Alpha  occ. eigenvalues --   -0.51618  -0.51145  -0.50574  -0.50469  -0.50036
 Alpha  occ. eigenvalues --   -0.49817  -0.49404  -0.48998  -0.48766  -0.48432
 Alpha  occ. eigenvalues --   -0.48162  -0.48060  -0.47356  -0.46640  -0.46398
 Alpha  occ. eigenvalues --   -0.46230  -0.45692  -0.45118  -0.44834  -0.44780
 Alpha  occ. eigenvalues --   -0.44637  -0.43655  -0.42446  -0.42036  -0.41586
 Alpha  occ. eigenvalues --   -0.41542  -0.40712  -0.39996  -0.39791  -0.38915
 Alpha  occ. eigenvalues --   -0.38513  -0.38019  -0.37156  -0.36978  -0.35844
 Alpha  occ. eigenvalues --   -0.34104  -0.34062  -0.33668  -0.32849  -0.31523
 Alpha  occ. eigenvalues --   -0.31035  -0.28601
 Alpha virt. eigenvalues --   -0.12917  -0.12734  -0.10358  -0.09484  -0.09236
 Alpha virt. eigenvalues --   -0.08303  -0.07593  -0.07070  -0.05476  -0.04420
 Alpha virt. eigenvalues --   -0.03628  -0.02875  -0.02091  -0.01739  -0.01486

 Mulliken charges:
               1
     1  N   -0.766521
     2  H    0.419357
     3  H    0.421739
     4  H    0.403786
     5  C   -0.099751
     6  H    0.201188
     7  C    0.660805
     8  C   -0.298081
     9  H    0.175138
    10  H    0.207303
    11  O   -0.534466
    12  C   -0.369706
    13  H    0.191100
    14  H    0.203376
    15  C    0.579645
    16  O   -0.427883
    17  O   -0.563448
    18  N   -0.607262
    19  H    0.366334
    20  C   -0.048846
    21  H    0.200637
    22  C    0.637793
    23  C   -0.388885
    24  H    0.172474
    25  H    0.178509
    26  O   -0.559661
    27  C    0.084440
    28  C    0.032699
    29  H    0.180492
    30  C    0.030472
    31  C    0.323481
    32  C   -0.216750
    33  H    0.144792
    34  N   -0.681750
    35  H    0.350937
    36  C   -0.186921
    37  H    0.161674
    38  C   -0.164273
    39  H    0.160357
    40  C   -0.166192
    41  H    0.158132
    42  N   -0.600396
    43  H    0.359298
    44  C   -0.085011
    45  H    0.189431
    46  C    0.631793
    47  C    0.106515
    48  H    0.160343
    49  O   -0.542448
    50  C   -0.450667
    51  H    0.155691
    52  H    0.183416
    53  H    0.148582
    54  O   -0.648372
    55  H    0.423153
    56  N   -0.609735
    57  H    0.372632
    58  C   -0.061208
    59  H    0.219885
    60  C    0.583951
    61  C   -0.263974
    62  H    0.188314
    63  H    0.130826
    64  O   -0.446511
    65  C   -0.312517
    66  H    0.158475
    67  H    0.163046
    68  C   -0.131980
    69  H    0.152677
    70  H    0.145288
    71  N   -0.604209
    72  H    0.317793
    73  N   -0.745411
    74  H    0.338727
    75  H    0.315316
    76  N   -0.674198
    77  H    0.283058
    78  C    0.594239
    79  O   -0.566751
    80  H    0.429396
    81  H    0.425278
 Sum of Mulliken charges =   1.00000

 Dipole moment (field-independent basis, Debye):
    X=            -14.0660    Y=              7.8301    Z=              1.7338  Tot=             16.1916
 Quadrupole moment (field-independent basis, Debye-Ang):
   XX=           -141.0652   YY=           -211.4601   ZZ=           -208.1073
   XY=            -35.5144   XZ=            -12.9691   YZ=             -1.0574

 Normal termination of Gaussian 16 at Fri May 13 04:40:23 2022.
