 Gaussian 16, Revision C.01,
 Gaussian 16:  ES64L-G16RevC.01  3-Jul-2019

 ----------------------------------------------------------------------
 # B3LYP/6-31G* empiricaldispersion=gd3 guess=read geom=check nosymm in
 tegral(ultrafinegrid)
 ----------------------------------------------------------------------

 ------------------------------------------------------
 Candidate Structure: Conf:102 Charge calc in gas phase
 ------------------------------------------------------
 Structure from the checkpoint file:  "conf-102.chk"
 Charge =  1 Multiplicity = 1

                          Input orientation:
 ---------------------------------------------------------------------
 Center     Atomic      Atomic             Coordinates (Angstroms)
 Number     Number       Type             X           Y           Z
 ---------------------------------------------------------------------
      1          7           0       -3.813384   -0.144979    3.792907
      2          1           0       -4.837964   -0.111843    3.810602
      3          1           0       -3.521595   -0.899240    3.114881
      4          1           0       -3.473239   -0.342734    4.738647
      5          6           0       -3.187954    1.097405    3.184836
      6          1           0       -3.859255    1.943450    3.353291
      7          6           0       -3.048064    0.703473    1.696251
      8          6           0       -1.803693    1.322463    3.833210
      9          1           0       -1.944766    1.327832    4.923382
     10          1           0       -1.141306    0.486491    3.574450
     11          8           0       -3.015045   -0.504993    1.436209
     12          6           0       -1.156157    2.658442    3.423935
     13          1           0       -1.820065    3.502095    3.633799
     14          1           0       -0.892535    2.663578    2.361486
     15          6           0        0.129349    2.913999    4.192760
     16          8           0        0.340668    3.868934    4.895980
     17          8           0        1.029688    1.918969    3.981144
     18          7           0       -2.889587    1.683917    0.794290
     19          1           0       -2.837281    2.642358    1.123023
     20          6           0       -2.150594    1.399342   -0.459790
     21          1           0       -2.481286    0.414874   -0.795414
     22          6           0       -0.677925    1.389615   -0.008128
     23          6           0       -2.403766    2.446840   -1.537803
     24          1           0       -2.054239    3.418126   -1.163724
     25          1           0       -3.486426    2.530515   -1.703254
     26          8           0       -0.091030    2.458584    0.196032
     27          6           0       -1.679583    2.116826   -2.814583
     28          6           0       -1.090501    0.926800   -3.176022
     29          1           0       -1.003559   -0.006960   -2.638689
     30          6           0       -1.466936    3.028354   -3.911193
     31          6           0       -0.747972    2.321069   -4.912676
     32          6           0       -1.796178    4.376600   -4.135817
     33          1           0       -2.345323    4.942796   -3.387647
     34          7           0       -0.526662    1.046339   -4.430645
     35          1           0       -0.055959    0.305834   -4.928001
     36          6           0       -0.695129    4.252983   -6.310804
     37          1           0       -0.372690    4.759884   -7.213868
     38          6           0       -0.362906    2.915925   -6.120487
     39          1           0        0.181724    2.357851   -6.877322
     40          6           0       -1.401326    4.976001   -5.325579
     41          1           0       -1.639595    6.019598   -5.508075
     42          7           0       -0.163212    0.183731    0.293318
     43          1           0       -0.760582   -0.632773    0.254761
     44          6           0        1.136614    0.044752    0.962260
     45          1           0        1.242792    0.890867    1.649500
     46          6           0        2.240017    0.088102   -0.124025
     47          6           0        1.185342   -1.263470    1.749417
     48          1           0        1.217543   -2.092278    1.029737
     49          8           0        2.765264   -0.930560   -0.558916
     50          6           0        2.410575   -1.321452    2.653681
     51          1           0        3.325477   -1.255998    2.058465
     52          1           0        2.436648   -2.269649    3.203023
     53          1           0        2.382316   -0.500484    3.377932
     54          8           0       -0.042184   -1.330527    2.510430
     55          1           0       -0.023672   -2.177492    2.982980
     56          7           0        2.505972    1.333365   -0.578712
     57          1           0        1.948404    2.099687   -0.220876
     58          6           0        3.312982    1.542128   -1.771207
     59          1           0        2.931967    0.902844   -2.576307
     60          6           0        4.771238    1.126126   -1.591928
     61          6           0        3.250301    3.013452   -2.221652
     62          1           0        3.827381    3.099875   -3.147415
     63          1           0        3.747137    3.644567   -1.472786
     64          8           0        5.481104    0.809936   -2.516612
     65          6           0        1.816340    3.509511   -2.459330
     66          1           0        1.249216    2.753689   -3.018879
     67          1           0        1.279031    3.636444   -1.513467
     68          6           0        1.757853    4.838582   -3.216800
     69          1           0        0.728597    5.229233   -3.154787
     70          1           0        2.423771    5.569953   -2.744875
     71          7           0        2.185655    4.651661   -4.598752
     72          1           0        1.754022    3.841398   -5.027688
     73          7           0        2.290201    6.980533   -4.934049
     74          1           0        2.332908    7.688560   -5.658648
     75          1           0        1.547996    7.165507   -4.268521
     76          7           0        2.437252    5.591387   -6.779926
     77          1           0        2.570673    4.611724   -7.038943
     78          6           0        2.283221    5.709052   -5.508228
     79          8           0        5.199480    1.223276   -0.312544
     80          1           0        1.836718    2.153706    4.479196
     81          1           0        6.142075    0.969932   -0.327001
 ---------------------------------------------------------------------

 SCF Done:  E(RB3LYP) =  -2054.00622099     A.U. after    1 cycles

 Alpha  occ. eigenvalues --  -19.31055 -19.29735 -19.26560 -19.25781 -19.25186
 Alpha  occ. eigenvalues --  -19.24068 -19.20086 -19.19703 -14.62992 -14.52832
 Alpha  occ. eigenvalues --  -14.48523 -14.46318 -14.43854 -14.39229 -14.38229
 Alpha  occ. eigenvalues --  -14.31939 -10.46488 -10.43666 -10.43617 -10.41091
 Alpha  occ. eigenvalues --  -10.38004 -10.37227 -10.36712 -10.36037 -10.34531
 Alpha  occ. eigenvalues --  -10.33500 -10.33441 -10.31859 -10.30918 -10.30850
 Alpha  occ. eigenvalues --  -10.30528 -10.29942 -10.27713 -10.27607 -10.27104
 Alpha  occ. eigenvalues --  -10.26469 -10.26393 -10.26349 -10.26067 -10.25619
 Alpha  occ. eigenvalues --  -10.25500 -10.25443  -1.22273  -1.21695  -1.16920
 Alpha  occ. eigenvalues --   -1.16558  -1.16030  -1.13402  -1.12912  -1.11911
 Alpha  occ. eigenvalues --   -1.09083  -1.07531  -1.06254  -1.04464  -1.01583
 Alpha  occ. eigenvalues --   -1.00793  -0.96986  -0.93197  -0.92413  -0.91393
 Alpha  occ. eigenvalues --   -0.89082  -0.88882  -0.88211  -0.86308  -0.85809
 Alpha  occ. eigenvalues --   -0.81769  -0.81318  -0.81092  -0.80267  -0.79517
 Alpha  occ. eigenvalues --   -0.76932  -0.76773  -0.75292  -0.74781  -0.73378
 Alpha  occ. eigenvalues --   -0.72453  -0.72330  -0.70501  -0.70163  -0.68588
 Alpha  occ. eigenvalues --   -0.67752  -0.66984  -0.66648  -0.65939  -0.65780
 Alpha  occ. eigenvalues --   -0.64985  -0.64280  -0.63987  -0.63148  -0.62558
 Alpha  occ. eigenvalues --   -0.62229  -0.61288  -0.60121  -0.59577  -0.59164
 Alpha  occ. eigenvalues --   -0.58724  -0.58597  -0.57414  -0.57210  -0.56676
 Alpha  occ. eigenvalues --   -0.56104  -0.55540  -0.55224  -0.54905  -0.54717
 Alpha  occ. eigenvalues --   -0.54509  -0.53831  -0.53438  -0.53108  -0.52561
 Alpha  occ. eigenvalues --   -0.52308  -0.51994  -0.51527  -0.51040  -0.50760
 Alpha  occ. eigenvalues --   -0.50709  -0.50623  -0.50328  -0.50052  -0.49618
 Alpha  occ. eigenvalues --   -0.49188  -0.48962  -0.48449  -0.48365  -0.48120
 Alpha  occ. eigenvalues --   -0.48001  -0.47899  -0.47134  -0.46300  -0.46179
 Alpha  occ. eigenvalues --   -0.45864  -0.44230  -0.44032  -0.43546  -0.43111
 Alpha  occ. eigenvalues --   -0.43063  -0.42875  -0.42687  -0.41616  -0.41238
 Alpha  occ. eigenvalues --   -0.40941  -0.40743  -0.39793  -0.38833  -0.38616
 Alpha  occ. eigenvalues --   -0.38378  -0.37709  -0.37525  -0.35427  -0.35211
 Alpha  occ. eigenvalues --   -0.33401  -0.32262  -0.31054  -0.30133  -0.29519
 Alpha  occ. eigenvalues --   -0.28453  -0.26079
 Alpha virt. eigenvalues --   -0.16043  -0.13477  -0.10720  -0.10364  -0.09076
 Alpha virt. eigenvalues --   -0.08707  -0.07554  -0.06711  -0.05183  -0.05134
 Alpha virt. eigenvalues --   -0.04979  -0.03842  -0.03712  -0.03089  -0.02527

 Mulliken charges:
               1
     1  N   -0.747520
     2  H    0.423506
     3  H    0.436258
     4  H    0.418635
     5  C   -0.120353
     6  H    0.216156
     7  C    0.659388
     8  C   -0.329809
     9  H    0.175744
    10  H    0.244666
    11  O   -0.527849
    12  C   -0.393328
    13  H    0.186166
    14  H    0.221640
    15  C    0.576708
    16  O   -0.418387
    17  O   -0.559353
    18  N   -0.590359
    19  H    0.360489
    20  C   -0.080174
    21  H    0.195231
    22  C    0.648055
    23  C   -0.348087
    24  H    0.172339
    25  H    0.174870
    26  O   -0.557551
    27  C    0.076165
    28  C   -0.009627
    29  H    0.146922
    30  C    0.081631
    31  C    0.314658
    32  C   -0.212091
    33  H    0.124670
    34  N   -0.691723
    35  H    0.343075
    36  C   -0.135135
    37  H    0.172691
    38  C   -0.210315
    39  H    0.146688
    40  C   -0.144306
    41  H    0.142116
    42  N   -0.591923
    43  H    0.363614
    44  C   -0.088129
    45  H    0.192374
    46  C    0.647035
    47  C    0.110537
    48  H    0.167378
    49  O   -0.523076
    50  C   -0.480506
    51  H    0.200206
    52  H    0.153128
    53  H    0.151696
    54  O   -0.655516
    55  H    0.402834
    56  N   -0.625670
    57  H    0.371010
    58  C   -0.009033
    59  H    0.176983
    60  C    0.602002
    61  C   -0.309961
    62  H    0.199927
    63  H    0.155540
    64  O   -0.457106
    65  C   -0.322835
    66  H    0.156206
    67  H    0.156122
    68  C   -0.131285
    69  H    0.133808
    70  H    0.166486
    71  N   -0.598748
    72  H    0.320112
    73  N   -0.742510
    74  H    0.339751
    75  H    0.316627
    76  N   -0.650431
    77  H    0.261320
    78  C    0.580367
    79  O   -0.569601
    80  H    0.431174
    81  H    0.417591
 Sum of Mulliken charges =   1.00000

 Dipole moment (field-independent basis, Debye):
    X=            -16.4847    Y=              0.8556    Z=             16.0788  Tot=             23.0435
 Quadrupole moment (field-independent basis, Debye-Ang):
   XX=           -193.2409   YY=           -234.0433   ZZ=           -189.7876
   XY=            -18.3035   XZ=            -25.1584   YZ=              3.8348

 Normal termination of Gaussian 16 at Fri May 13 04:40:24 2022.
