 Gaussian 16, Revision C.01,
 Gaussian 16:  ES64L-G16RevC.01  3-Jul-2019

 ----------------------------------------------------------------------
 # B3LYP/6-31G* empiricaldispersion=gd3 guess=read geom=check nosymm in
 tegral(ultrafinegrid)
 ----------------------------------------------------------------------

 ------------------------------------------------------
 Candidate Structure: Conf:966 Charge calc in gas phase
 ------------------------------------------------------
 Structure from the checkpoint file:  "conf-966.chk"
 Charge =  1 Multiplicity = 1

                          Input orientation:
 ---------------------------------------------------------------------
 Center     Atomic      Atomic             Coordinates (Angstroms)
 Number     Number       Type             X           Y           Z
 ---------------------------------------------------------------------
      1          7           0       -3.968414   -1.041819    5.218055
      2          1           0       -4.924362   -0.682892    5.299743
      3          1           0       -3.967021   -1.823810    4.495039
      4          1           0       -3.660705   -1.375230    6.135730
      5          6           0       -3.014100   -0.051492    4.576063
      6          1           0       -3.389478    0.960705    4.746104
      7          6           0       -3.095234   -0.462826    3.080184
      8          6           0       -1.619047   -0.241740    5.198363
      9          1           0       -1.711630   -0.053792    6.274744
     10          1           0       -1.328235   -1.288921    5.058934
     11          8           0       -3.474492   -1.615005    2.832687
     12          6           0       -0.509084    0.664048    4.624616
     13          1           0        0.232765    0.885870    5.396060
     14          1           0       -0.880861    1.642307    4.294133
     15          6           0        0.204735    0.029848    3.440941
     16          8           0       -0.254520   -0.864487    2.759056
     17          8           0        1.411844    0.576799    3.259656
     18          7           0       -2.771646    0.480131    2.206545
     19          1           0       -2.377332    1.362840    2.531754
     20          6           0       -2.432378    0.254595    0.804178
     21          1           0       -2.254438   -0.813109    0.658503
     22          6           0       -1.142527    1.064052    0.581227
     23          6           0       -3.586300    0.734475   -0.124431
     24          1           0       -3.834659    1.765782    0.154149
     25          1           0       -4.461616    0.120399    0.115747
     26          8           0       -0.872408    2.016573    1.326409
     27          6           0       -3.261250    0.666128   -1.586279
     28          6           0       -3.387455   -0.422785   -2.418067
     29          1           0       -3.775038   -1.410677   -2.208121
     30          6           0       -2.693815    1.725736   -2.383636
     31          6           0       -2.507712    1.209085   -3.693608
     32          6           0       -2.304437    3.048793   -2.110069
     33          1           0       -2.424329    3.464992   -1.112866
     34          7           0       -2.952728   -0.095644   -3.684073
     35          1           0       -2.867175   -0.743515   -4.451949
     36          6           0       -1.578954    3.277270   -4.426454
     37          1           0       -1.147466    3.899708   -5.205467
     38          6           0       -1.953338    1.972694   -4.725885
     39          1           0       -1.820252    1.560550   -5.722202
     40          6           0       -1.750347    3.810766   -3.131208
     41          1           0       -1.446627    4.834811   -2.933861
     42          7           0       -0.410877    0.680047   -0.470212
     43          1           0       -0.744573   -0.062648   -1.081464
     44          6           0        0.669469    1.463517   -1.037302
     45          1           0        0.424922    2.526982   -0.957582
     46          6           0        0.778218    1.049486   -2.508321
     47          6           0        2.023912    1.223398   -0.294004
     48          1           0        1.884489    1.668296    0.697671
     49          8           0        0.329618   -0.024466   -2.906776
     50          6           0        2.369912   -0.261921   -0.170150
     51          1           0        1.614899   -0.797179    0.416428
     52          1           0        3.350607   -0.371779    0.305216
     53          1           0        2.416691   -0.736860   -1.155343
     54          8           0        3.064567    1.972175   -0.907097
     55          1           0        3.428941    1.437912   -1.638276
     56          7           0        1.440475    1.929716   -3.298492
     57          1           0        1.932806    2.670581   -2.813150
     58          6           0        1.943268    1.519133   -4.595115
     59          1           0        1.116161    1.061410   -5.142892
     60          6           0        3.051030    0.466774   -4.520811
     61          6           0        2.472103    2.725266   -5.401402
     62          1           0        1.628521    3.411636   -5.528384
     63          1           0        2.724794    2.351561   -6.399630
     64          8           0        3.445740   -0.114935   -5.509949
     65          6           0        3.685335    3.474078   -4.780771
     66          1           0        3.456461    4.544233   -4.716311
     67          1           0        3.878336    3.145608   -3.752382
     68          6           0        5.006539    3.336068   -5.567628
     69          1           0        4.843535    3.587010   -6.620894
     70          1           0        5.725019    4.073677   -5.194389
     71          7           0        5.627001    2.008214   -5.547464
     72          1           0        5.205791    1.344236   -6.185809
     73          7           0        6.418117    2.255148   -3.351956
     74          1           0        6.959271    1.775520   -2.642067
     75          1           0        6.823140    3.147633   -3.605376
     76          7           0        6.202567    0.120222   -4.203314
     77          1           0        5.884421   -0.394564   -5.025648
     78          6           0        6.101966    1.401609   -4.399557
     79          8           0        3.614513    0.344512   -3.302248
     80          1           0        1.813216    0.172169    2.466731
     81          1           0        4.531737   -0.044178   -3.428502
 ---------------------------------------------------------------------

 SCF Done:  E(RB3LYP) =  -2054.04848466     A.U. after    1 cycles

 Alpha  occ. eigenvalues --  -19.29999 -19.26380 -19.26126 -19.24812 -19.21580
 Alpha  occ. eigenvalues --  -19.21537 -19.20923 -19.19893 -14.60661 -14.48765
 Alpha  occ. eigenvalues --  -14.45024 -14.44813 -14.43655 -14.42051 -14.41334
 Alpha  occ. eigenvalues --  -14.34966 -10.43231 -10.43199 -10.41249 -10.39101
 Alpha  occ. eigenvalues --  -10.38315 -10.36625 -10.35445 -10.34970 -10.33666
 Alpha  occ. eigenvalues --  -10.32900 -10.31939 -10.31229 -10.30976 -10.29885
 Alpha  occ. eigenvalues --  -10.29469 -10.28764 -10.28732 -10.27235 -10.26416
 Alpha  occ. eigenvalues --  -10.25878 -10.25683 -10.25494 -10.25376 -10.25276
 Alpha  occ. eigenvalues --  -10.25253 -10.24898  -1.21230  -1.19092  -1.17135
 Alpha  occ. eigenvalues --   -1.14265  -1.13319  -1.12363  -1.11787  -1.09228
 Alpha  occ. eigenvalues --   -1.08329  -1.05802  -1.05023  -1.04725  -1.01755
 Alpha  occ. eigenvalues --   -1.00752  -0.95730  -0.95127  -0.91140  -0.90839
 Alpha  occ. eigenvalues --   -0.89860  -0.87497  -0.87343  -0.85455  -0.83921
 Alpha  occ. eigenvalues --   -0.81691  -0.80453  -0.80114  -0.79253  -0.78471
 Alpha  occ. eigenvalues --   -0.75737  -0.74455  -0.74248  -0.73770  -0.71679
 Alpha  occ. eigenvalues --   -0.70209  -0.70091  -0.69877  -0.69211  -0.68647
 Alpha  occ. eigenvalues --   -0.66919  -0.66394  -0.66207  -0.65409  -0.64991
 Alpha  occ. eigenvalues --   -0.64025  -0.63714  -0.62266  -0.61960  -0.61062
 Alpha  occ. eigenvalues --   -0.60730  -0.59840  -0.58931  -0.58790  -0.58441
 Alpha  occ. eigenvalues --   -0.57920  -0.56541  -0.56078  -0.55797  -0.55520
 Alpha  occ. eigenvalues --   -0.55333  -0.54800  -0.54589  -0.54114  -0.53924
 Alpha  occ. eigenvalues --   -0.53696  -0.53347  -0.52921  -0.52494  -0.52187
 Alpha  occ. eigenvalues --   -0.51964  -0.51433  -0.51286  -0.51091  -0.50758
 Alpha  occ. eigenvalues --   -0.50376  -0.49900  -0.49714  -0.48861  -0.48815
 Alpha  occ. eigenvalues --   -0.48589  -0.48166  -0.48035  -0.47859  -0.47326
 Alpha  occ. eigenvalues --   -0.46851  -0.46573  -0.46324  -0.45599  -0.45351
 Alpha  occ. eigenvalues --   -0.44722  -0.44618  -0.43271  -0.42854  -0.42359
 Alpha  occ. eigenvalues --   -0.42246  -0.42003  -0.41308  -0.41146  -0.40533
 Alpha  occ. eigenvalues --   -0.40129  -0.39966  -0.39214  -0.38680  -0.38270
 Alpha  occ. eigenvalues --   -0.37485  -0.36132  -0.35663  -0.34326  -0.34081
 Alpha  occ. eigenvalues --   -0.33583  -0.32980  -0.32553  -0.32438  -0.29050
 Alpha  occ. eigenvalues --   -0.28985  -0.27506
 Alpha virt. eigenvalues --   -0.12294  -0.11339  -0.09983  -0.08270  -0.07302
 Alpha virt. eigenvalues --   -0.07040  -0.06831  -0.05765  -0.05108  -0.04281
 Alpha virt. eigenvalues --   -0.02716  -0.02445  -0.01943  -0.01391  -0.00628

 Mulliken charges:
               1
     1  N   -0.752983
     2  H    0.418578
     3  H    0.433454
     4  H    0.412860
     5  C   -0.128258
     6  H    0.212490
     7  C    0.674773
     8  C   -0.287874
     9  H    0.175266
    10  H    0.202386
    11  O   -0.539540
    12  C   -0.387034
    13  H    0.215793
    14  H    0.209843
    15  C    0.619287
    16  O   -0.473454
    17  O   -0.556089
    18  N   -0.589705
    19  H    0.361281
    20  C   -0.073419
    21  H    0.202804
    22  C    0.646596
    23  C   -0.345720
    24  H    0.163223
    25  H    0.169619
    26  O   -0.579141
    27  C    0.029509
    28  C    0.004204
    29  H    0.162591
    30  C    0.085141
    31  C    0.334253
    32  C   -0.220368
    33  H    0.131499
    34  N   -0.679874
    35  H    0.341706
    36  C   -0.148911
    37  H    0.132391
    38  C   -0.160773
    39  H    0.136998
    40  C   -0.146092
    41  H    0.131726
    42  N   -0.607572
    43  H    0.372777
    44  C   -0.055806
    45  H    0.187804
    46  C    0.634465
    47  C    0.130896
    48  H    0.151008
    49  O   -0.552404
    50  C   -0.524997
    51  H    0.158182
    52  H    0.165369
    53  H    0.192024
    54  O   -0.663013
    55  H    0.438170
    56  N   -0.602422
    57  H    0.352597
    58  C   -0.049535
    59  H    0.199633
    60  C    0.633094
    61  C   -0.303152
    62  H    0.168678
    63  H    0.171581
    64  O   -0.485594
    65  C   -0.301017
    66  H    0.156135
    67  H    0.172619
    68  C   -0.158293
    69  H    0.169718
    70  H    0.154850
    71  N   -0.578309
    72  H    0.346854
    73  N   -0.734657
    74  H    0.349887
    75  H    0.336383
    76  N   -0.711927
    77  H    0.303694
    78  C    0.579528
    79  O   -0.619841
    80  H    0.442832
    81  H    0.440728
 Sum of Mulliken charges =   1.00000

 Dipole moment (field-independent basis, Debye):
    X=             -9.3784    Y=              3.3193    Z=             12.3736  Tot=             15.8770
 Quadrupole moment (field-independent basis, Debye-Ang):
   XX=           -165.7532   YY=           -225.6260   ZZ=            -88.1566
   XY=             36.3523   XZ=            -82.2173   YZ=            -36.8776

 Normal termination of Gaussian 16 at Fri May 13 04:40:15 2022.
