 Gaussian 16, Revision C.01,
 Gaussian 16:  ES64L-G16RevC.01  3-Jul-2019

 ----------------------------------------------------------------------
 # B3LYP/6-31G* empiricaldispersion=gd3 guess=read geom=check nosymm in
 tegral(ultrafinegrid)
 ----------------------------------------------------------------------

 ------------------------------------------------------
 Candidate Structure: Conf:553 Charge calc in gas phase
 ------------------------------------------------------
 Structure from the checkpoint file:  "conf-553.chk"
 Charge =  1 Multiplicity = 1

                          Input orientation:
 ---------------------------------------------------------------------
 Center     Atomic      Atomic             Coordinates (Angstroms)
 Number     Number       Type             X           Y           Z
 ---------------------------------------------------------------------
      1          7           0       -5.208386   -0.640890    1.515808
      2          1           0       -5.885796    0.148490    1.495967
      3          1           0       -5.070028   -0.961945    0.530335
      4          1           0       -5.577213   -1.390417    2.106513
      5          6           0       -3.846145   -0.144848    1.946506
      6          1           0       -4.034604    0.745530    2.546404
      7          6           0       -3.179716    0.226290    0.603902
      8          6           0       -3.021827   -1.155981    2.752171
      9          1           0       -2.205698   -0.591832    3.215829
     10          1           0       -3.617088   -1.525918    3.596427
     11          8           0       -3.598627   -0.297964   -0.429437
     12          6           0       -2.402724   -2.321095    1.973510
     13          1           0       -1.924282   -1.985057    1.046583
     14          1           0       -3.136235   -3.080634    1.678841
     15          6           0       -1.313911   -2.981371    2.807493
     16          8           0       -0.943450   -2.582145    3.888543
     17          8           0       -0.814714   -4.057690    2.179654
     18          7           0       -2.134266    1.061293    0.699613
     19          1           0       -1.969758    1.494462    1.601272
     20          6           0       -1.536430    1.747387   -0.453949
     21          1           0       -1.826986    1.185155   -1.345138
     22          6           0       -0.002080    1.697324   -0.371212
     23          6           0       -2.130958    3.174126   -0.570549
     24          1           0       -1.614224    3.694194   -1.376897
     25          1           0       -1.926641    3.732021    0.352630
     26          8           0        0.706459    2.519845   -0.951937
     27          6           0       -3.605238    3.058531   -0.839796
     28          6           0       -4.157809    2.798804   -2.072171
     29          1           0       -3.653867    2.794941   -3.031079
     30          6           0       -4.657933    2.877408    0.125332
     31          6           0       -5.821209    2.460310   -0.593702
     32          6           0       -4.742156    3.001132    1.523999
     33          1           0       -3.893693    3.374138    2.093599
     34          7           0       -5.483323    2.445975   -1.927046
     35          1           0       -6.117964    2.255109   -2.687921
     36          6           0       -7.042049    2.177417    1.445918
     37          1           0       -7.961870    1.938326    1.972506
     38          6           0       -7.007838    2.098094    0.050515
     39          1           0       -7.880052    1.776535   -0.512247
     40          6           0       -5.922651    2.649170    2.174596
     41          1           0       -5.999650    2.760743    3.252764
     42          7           0        0.469502    0.665980    0.362738
     43          1           0       -0.163167   -0.073148    0.644286
     44          6           0        1.863646    0.387108    0.670258
     45          1           0        2.356171    1.324411    0.951637
     46          6           0        2.588965   -0.238683   -0.542632
     47          6           0        1.860374   -0.617518    1.852415
     48          1           0        2.891361   -0.962473    2.002416
     49          8           0        2.752311   -1.461962   -0.624493
     50          6           0        1.322622   -0.021497    3.144730
     51          1           0        1.979462    0.773746    3.511261
     52          1           0        1.244652   -0.805396    3.901917
     53          1           0        0.321535    0.399369    2.995742
     54          8           0        1.020942   -1.723319    1.501163
     55          1           0        1.464988   -2.129494    0.727993
     56          7           0        3.003718    0.638454   -1.479456
     57          1           0        2.826072    1.629387   -1.338532
     58          6           0        3.852411    0.269417   -2.605409
     59          1           0        4.332371   -0.683907   -2.366604
     60          6           0        4.917503    1.350920   -2.752660
     61          6           0        3.059621    0.129575   -3.924769
     62          1           0        3.772368   -0.023577   -4.740912
     63          1           0        2.571184    1.093607   -4.121404
     64          8           0        4.855634    2.447778   -2.244025
     65          6           0        2.023118   -1.018766   -3.884368
     66          1           0        2.401413   -1.872869   -4.455895
     67          1           0        1.885506   -1.377770   -2.860016
     68          6           0        0.660261   -0.624131   -4.453177
     69          1           0        0.765390   -0.230709   -5.473932
     70          1           0        0.032528   -1.521199   -4.517333
     71          7           0        0.006936    0.365127   -3.579389
     72          1           0        0.648327    0.911190   -3.014343
     73          7           0       -1.888660    0.451788   -4.930383
     74          1           0       -2.727495    0.969647   -5.156634
     75          1           0       -2.044715   -0.535871   -4.774319
     76          7           0       -1.374063    2.319041   -3.662487
     77          1           0       -0.602800    2.736781   -3.138766
     78          6           0       -1.077773    1.113721   -4.022401
     79          8           0        5.912554    0.944986   -3.562666
     80          1           0       -0.066047   -4.380964    2.716195
     81          1           0        6.537832    1.689749   -3.652545
 ---------------------------------------------------------------------

 SCF Done:  E(RB3LYP) =  -2054.04977649     A.U. after    1 cycles

 Alpha  occ. eigenvalues --  -19.28700 -19.27874 -19.26856 -19.23540 -19.23359
 Alpha  occ. eigenvalues --  -19.22357 -19.22346 -19.21514 -14.59354 -14.50409
 Alpha  occ. eigenvalues --  -14.48050 -14.46499 -14.45224 -14.42310 -14.41768
 Alpha  occ. eigenvalues --  -14.35680 -10.43773 -10.41890 -10.40356 -10.40055
 Alpha  occ. eigenvalues --  -10.39529 -10.38430 -10.35573 -10.34412 -10.33735
 Alpha  occ. eigenvalues --  -10.33357 -10.33086 -10.32665 -10.32416 -10.31982
 Alpha  occ. eigenvalues --  -10.30939 -10.30372 -10.29889 -10.29854 -10.29655
 Alpha  occ. eigenvalues --  -10.29650 -10.29229 -10.29227 -10.27691 -10.27516
 Alpha  occ. eigenvalues --  -10.26488 -10.26462  -1.19824  -1.19277  -1.18860
 Alpha  occ. eigenvalues --   -1.14363  -1.13520  -1.13229  -1.11032  -1.10703
 Alpha  occ. eigenvalues --   -1.10023  -1.08006  -1.07279  -1.04978  -1.02965
 Alpha  occ. eigenvalues --   -1.01713  -0.96032  -0.94962  -0.94592  -0.91663
 Alpha  occ. eigenvalues --   -0.90950  -0.88891  -0.87942  -0.86563  -0.85491
 Alpha  occ. eigenvalues --   -0.84390  -0.82910  -0.82335  -0.80243  -0.78866
 Alpha  occ. eigenvalues --   -0.76421  -0.75057  -0.73621  -0.72924  -0.72718
 Alpha  occ. eigenvalues --   -0.72105  -0.71467  -0.69898  -0.69754  -0.69243
 Alpha  occ. eigenvalues --   -0.68350  -0.68024  -0.67500  -0.67270  -0.67056
 Alpha  occ. eigenvalues --   -0.65446  -0.64032  -0.62723  -0.62323  -0.61658
 Alpha  occ. eigenvalues --   -0.61337  -0.60674  -0.60413  -0.59653  -0.59221
 Alpha  occ. eigenvalues --   -0.58240  -0.57780  -0.57531  -0.57347  -0.57169
 Alpha  occ. eigenvalues --   -0.56233  -0.55920  -0.55510  -0.55186  -0.55023
 Alpha  occ. eigenvalues --   -0.54732  -0.54350  -0.53902  -0.53616  -0.53454
 Alpha  occ. eigenvalues --   -0.52881  -0.52438  -0.52287  -0.51665  -0.51505
 Alpha  occ. eigenvalues --   -0.51254  -0.51160  -0.50720  -0.50393  -0.50208
 Alpha  occ. eigenvalues --   -0.49404  -0.48853  -0.48656  -0.48267  -0.48215
 Alpha  occ. eigenvalues --   -0.47775  -0.47683  -0.47263  -0.46949  -0.46667
 Alpha  occ. eigenvalues --   -0.45956  -0.45601  -0.45324  -0.44916  -0.44553
 Alpha  occ. eigenvalues --   -0.43852  -0.43212  -0.42766  -0.42534  -0.41972
 Alpha  occ. eigenvalues --   -0.41217  -0.40928  -0.40376  -0.39914  -0.38401
 Alpha  occ. eigenvalues --   -0.38247  -0.37250  -0.36748  -0.36033  -0.35924
 Alpha  occ. eigenvalues --   -0.34667  -0.34049  -0.33680  -0.33280  -0.33034
 Alpha  occ. eigenvalues --   -0.30432  -0.29771
 Alpha virt. eigenvalues --   -0.12943  -0.12136  -0.09915  -0.09053  -0.08943
 Alpha virt. eigenvalues --   -0.08164  -0.07757  -0.07120  -0.06526  -0.04430
 Alpha virt. eigenvalues --   -0.03478  -0.02567  -0.02411  -0.01409  -0.01218

 Mulliken charges:
               1
     1  N   -0.764203
     2  H    0.417829
     3  H    0.422234
     4  H    0.405190
     5  C   -0.120192
     6  H    0.207604
     7  C    0.668372
     8  C   -0.297853
     9  H    0.209988
    10  H    0.183793
    11  O   -0.534839
    12  C   -0.385815
    13  H    0.211266
    14  H    0.179468
    15  C    0.635367
    16  O   -0.459875
    17  O   -0.563735
    18  N   -0.620817
    19  H    0.348846
    20  C   -0.087389
    21  H    0.244520
    22  C    0.632728
    23  C   -0.348007
    24  H    0.212807
    25  H    0.150056
    26  O   -0.545912
    27  C    0.024923
    28  C    0.040420
    29  H    0.219216
    30  C    0.067927
    31  C    0.333454
    32  C   -0.237368
    33  H    0.136221
    34  N   -0.681142
    35  H    0.344516
    36  C   -0.223297
    37  H    0.156333
    38  C   -0.178296
    39  H    0.155314
    40  C   -0.166701
    41  H    0.150986
    42  N   -0.610371
    43  H    0.359081
    44  C   -0.068153
    45  H    0.185009
    46  C    0.640624
    47  C    0.100193
    48  H    0.162945
    49  O   -0.548490
    50  C   -0.452880
    51  H    0.161931
    52  H    0.196981
    53  H    0.116540
    54  O   -0.663561
    55  H    0.426510
    56  N   -0.602740
    57  H    0.375445
    58  C   -0.059330
    59  H    0.209827
    60  C    0.586246
    61  C   -0.289803
    62  H    0.183495
    63  H    0.155805
    64  O   -0.454386
    65  C   -0.313437
    66  H    0.164661
    67  H    0.183668
    68  C   -0.119871
    69  H    0.167465
    70  H    0.142872
    71  N   -0.630496
    72  H    0.336478
    73  N   -0.732696
    74  H    0.337138
    75  H    0.328904
    76  N   -0.693475
    77  H    0.292507
    78  C    0.584445
    79  O   -0.558338
    80  H    0.427991
    81  H    0.427328
 Sum of Mulliken charges =   1.00000

 Dipole moment (field-independent basis, Debye):
    X=            -15.3125    Y=             -2.0061    Z=              1.9155  Tot=             15.5617
 Quadrupole moment (field-independent basis, Debye-Ang):
   XX=           -102.2956   YY=           -240.8966   ZZ=           -204.3288
   XY=              6.8591   XZ=            -28.8620   YZ=              1.5911

 Normal termination of Gaussian 16 at Fri May 13 04:40:11 2022.
