 Gaussian 16, Revision C.01,
 Gaussian 16:  ES64L-G16RevC.01  3-Jul-2019

 ----------------------------------------------------------------------
 # B3LYP/6-31G* empiricaldispersion=gd3 guess=read geom=check nosymm in
 tegral(ultrafinegrid)
 ----------------------------------------------------------------------

 ------------------------------------------------------
 Candidate Structure: Conf:797 Charge calc in gas phase
 ------------------------------------------------------
 Structure from the checkpoint file:  "conf-797.chk"
 Charge =  1 Multiplicity = 1

                          Input orientation:
 ---------------------------------------------------------------------
 Center     Atomic      Atomic             Coordinates (Angstroms)
 Number     Number       Type             X           Y           Z
 ---------------------------------------------------------------------
      1          7           0       -4.807900    1.347602    2.367906
      2          1           0       -5.230023    2.028303    1.701086
      3          1           0       -5.056902    0.390638    2.044987
      4          1           0       -5.182590    1.518297    3.305711
      5          6           0       -3.298672    1.392210    2.316950
      6          1           0       -3.013572    2.433525    2.151170
      7          6           0       -2.968745    0.486380    1.115697
      8          6           0       -2.696891    0.822777    3.607964
      9          1           0       -2.988803    1.445395    4.461395
     10          1           0       -3.104371   -0.179894    3.781529
     11          8           0       -3.673972   -0.505400    0.931188
     12          6           0       -1.166267    0.740906    3.541711
     13          1           0       -0.721471    1.709511    3.274989
     14          1           0       -0.818567    0.023005    2.790136
     15          6           0       -0.593329    0.327693    4.882772
     16          8           0       -1.226765    0.181236    5.899169
     17          8           0        0.749550    0.145462    4.798795
     18          7           0       -1.899405    0.844800    0.395311
     19          1           0       -1.444913    1.731329    0.580273
     20          6           0       -1.451811    0.145128   -0.814276
     21          1           0       -1.827447   -0.878414   -0.741916
     22          6           0        0.076967    0.216582   -0.701389
     23          6           0       -2.018083    0.823687   -2.085684
     24          1           0       -1.699354    0.236387   -2.954728
     25          1           0       -1.556379    1.811341   -2.190503
     26          8           0        0.660743    1.267175   -0.994745
     27          6           0       -3.515306    0.913956   -2.013446
     28          6           0       -4.412010   -0.030159   -2.451823
     29          1           0       -4.237218   -0.921978   -3.038162
     30          6           0       -4.284422    1.883197   -1.273445
     31          6           0       -5.640875    1.438154   -1.276173
     32          6           0       -3.964509    3.065656   -0.582408
     33          1           0       -2.949955    3.455446   -0.602330
     34          7           0       -5.682770    0.279386   -2.015354
     35          1           0       -6.517637   -0.237966   -2.247772
     36          6           0       -6.297080    3.263532    0.122737
     37          1           0       -7.064039    3.825606    0.647953
     38          6           0       -6.651187    2.111354   -0.581643
     39          1           0       -7.678423    1.758233   -0.596163
     40          6           0       -4.963903    3.744578    0.111729
     41          1           0       -4.730204    4.672868    0.625743
     42          7           0        0.671638   -0.845198   -0.136097
     43          1           0        0.093320   -1.607218    0.194905
     44          6           0        2.047788   -0.806962    0.377948
     45          1           0        2.230242    0.211523    0.743305
     46          6           0        3.026649   -1.136251   -0.773864
     47          6           0        2.167073   -1.808108    1.541887
     48          1           0        2.056707   -2.814746    1.125192
     49          8           0        3.502165   -2.255896   -0.916976
     50          6           0        3.512863   -1.700366    2.246857
     51          1           0        4.327567   -1.922781    1.553673
     52          1           0        3.552794   -2.415176    3.074159
     53          1           0        3.664353   -0.689205    2.648562
     54          8           0        1.065865   -1.630206    2.444412
     55          1           0        1.325942   -0.990748    3.129199
     56          7           0        3.236574   -0.097091   -1.614986
     57          1           0        2.805131    0.795082   -1.403074
     58          6           0        4.057871   -0.197228   -2.803532
     59          1           0        4.022966   -1.235606   -3.150228
     60          6           0        5.516421    0.119269   -2.462857
     61          6           0        3.511060    0.752208   -3.889326
     62          1           0        4.188316    0.732837   -4.747948
     63          1           0        3.543493    1.773423   -3.491572
     64          8           0        5.915469    0.520252   -1.395825
     65          6           0        2.077185    0.385677   -4.315196
     66          1           0        2.102564   -0.366146   -5.114569
     67          1           0        1.558514   -0.084590   -3.469545
     68          6           0        1.225816    1.582808   -4.772577
     69          1           0        1.673526    2.077287   -5.640246
     70          1           0        0.247976    1.212742   -5.109140
     71          7           0        1.007875    2.581524   -3.733736
     72          1           0        0.745088    2.194117   -2.831315
     73          7           0        1.472578    4.443818   -2.448737
     74          1           0        1.961634    5.333065   -2.447720
     75          1           0        0.472813    4.576645   -2.332017
     76          7           0        2.726920    4.174088   -4.376725
     77          1           0        2.972374    3.516711   -5.116065
     78          6           0        1.797618    3.727712   -3.613137
     79          8           0        6.310693   -0.102082   -3.533858
     80          1           0        1.066211   -0.118748    5.684710
     81          1           0        7.221620    0.122537   -3.265010
 ---------------------------------------------------------------------

 SCF Done:  E(RB3LYP) =  -2054.02952924     A.U. after    1 cycles

 Alpha  occ. eigenvalues --  -19.31588 -19.27302 -19.25796 -19.25652 -19.23978
 Alpha  occ. eigenvalues --  -19.23674 -19.19970 -19.19055 -14.60522 -14.51416
 Alpha  occ. eigenvalues --  -14.49739 -14.48000 -14.43222 -14.40324 -14.39258
 Alpha  occ. eigenvalues --  -14.33647 -10.44484 -10.44148 -10.41443 -10.40856
 Alpha  occ. eigenvalues --  -10.37950 -10.36451 -10.36443 -10.34871 -10.34263
 Alpha  occ. eigenvalues --  -10.33565 -10.33532 -10.33237 -10.32797 -10.32479
 Alpha  occ. eigenvalues --  -10.31673 -10.31408 -10.31277 -10.31216 -10.31096
 Alpha  occ. eigenvalues --  -10.30829 -10.30571 -10.29892 -10.28718 -10.25959
 Alpha  occ. eigenvalues --  -10.25749 -10.25639  -1.22183  -1.19927  -1.16497
 Alpha  occ. eigenvalues --   -1.15849  -1.14685  -1.13520  -1.11340  -1.10695
 Alpha  occ. eigenvalues --   -1.09792  -1.08001  -1.07643  -1.03931  -1.02716
 Alpha  occ. eigenvalues --   -1.00189  -0.96549  -0.95946  -0.94204  -0.92722
 Alpha  occ. eigenvalues --   -0.89845  -0.89176  -0.87804  -0.87016  -0.86036
 Alpha  occ. eigenvalues --   -0.85790  -0.84097  -0.81428  -0.80627  -0.79788
 Alpha  occ. eigenvalues --   -0.77483  -0.74838  -0.74524  -0.74130  -0.73764
 Alpha  occ. eigenvalues --   -0.73505  -0.72214  -0.71477  -0.70581  -0.69674
 Alpha  occ. eigenvalues --   -0.68584  -0.68248  -0.67097  -0.66614  -0.65717
 Alpha  occ. eigenvalues --   -0.65512  -0.64634  -0.63442  -0.63157  -0.61881
 Alpha  occ. eigenvalues --   -0.61258  -0.60538  -0.60142  -0.59977  -0.59700
 Alpha  occ. eigenvalues --   -0.59569  -0.59467  -0.58996  -0.58048  -0.57252
 Alpha  occ. eigenvalues --   -0.56493  -0.56347  -0.55922  -0.55629  -0.55099
 Alpha  occ. eigenvalues --   -0.54828  -0.54197  -0.53853  -0.53554  -0.53362
 Alpha  occ. eigenvalues --   -0.53145  -0.52773  -0.52423  -0.52299  -0.51920
 Alpha  occ. eigenvalues --   -0.51795  -0.51325  -0.51061  -0.50479  -0.50300
 Alpha  occ. eigenvalues --   -0.49852  -0.49660  -0.49232  -0.49058  -0.48581
 Alpha  occ. eigenvalues --   -0.47907  -0.47391  -0.47137  -0.46771  -0.46127
 Alpha  occ. eigenvalues --   -0.45967  -0.45647  -0.45372  -0.45054  -0.44418
 Alpha  occ. eigenvalues --   -0.43672  -0.43131  -0.41813  -0.41745  -0.41352
 Alpha  occ. eigenvalues --   -0.41148  -0.41003  -0.40863  -0.39808  -0.39344
 Alpha  occ. eigenvalues --   -0.38365  -0.37777  -0.37690  -0.36617  -0.34934
 Alpha  occ. eigenvalues --   -0.33883  -0.32821  -0.32383  -0.32098  -0.31388
 Alpha  occ. eigenvalues --   -0.31151  -0.28033
 Alpha virt. eigenvalues --   -0.13949  -0.13815  -0.10823  -0.10503  -0.10456
 Alpha virt. eigenvalues --   -0.09634  -0.07093  -0.05876  -0.05224  -0.05014
 Alpha virt. eigenvalues --   -0.04724  -0.03754  -0.02924  -0.02428  -0.02201

 Mulliken charges:
               1
     1  N   -0.762071
     2  H    0.422763
     3  H    0.421775
     4  H    0.409834
     5  C   -0.114327
     6  H    0.198669
     7  C    0.664633
     8  C   -0.283390
     9  H    0.194028
    10  H    0.198957
    11  O   -0.530854
    12  C   -0.404340
    13  H    0.188655
    14  H    0.221198
    15  C    0.613201
    16  O   -0.432774
    17  O   -0.581804
    18  N   -0.594880
    19  H    0.355468
    20  C   -0.056025
    21  H    0.194290
    22  C    0.631809
    23  C   -0.369345
    24  H    0.181328
    25  H    0.181511
    26  O   -0.549888
    27  C    0.064303
    28  C    0.036821
    29  H    0.182504
    30  C    0.069849
    31  C    0.328789
    32  C   -0.229256
    33  H    0.140072
    34  N   -0.679948
    35  H    0.351525
    36  C   -0.215326
    37  H    0.162990
    38  C   -0.168853
    39  H    0.162448
    40  C   -0.187590
    41  H    0.155936
    42  N   -0.585528
    43  H    0.357109
    44  C   -0.075746
    45  H    0.167981
    46  C    0.644847
    47  C    0.107751
    48  H    0.175975
    49  O   -0.518785
    50  C   -0.495417
    51  H    0.207290
    52  H    0.171794
    53  H    0.143331
    54  O   -0.671640
    55  H    0.417592
    56  N   -0.599055
    57  H    0.364039
    58  C   -0.052266
    59  H    0.200777
    60  C    0.598959
    61  C   -0.312840
    62  H    0.180665
    63  H    0.175715
    64  O   -0.455787
    65  C   -0.274303
    66  H    0.151604
    67  H    0.134290
    68  C   -0.151264
    69  H    0.161625
    70  H    0.141491
    71  N   -0.638104
    72  H    0.366834
    73  N   -0.748821
    74  H    0.337826
    75  H    0.303834
    76  N   -0.635242
    77  H    0.276052
    78  C    0.560821
    79  O   -0.564822
    80  H    0.437202
    81  H    0.421530
 Sum of Mulliken charges =   1.00000

 Dipole moment (field-independent basis, Debye):
    X=            -19.0842    Y=              4.5372    Z=              6.3863  Tot=             20.6295
 Quadrupole moment (field-independent basis, Debye-Ang):
   XX=           -129.8367   YY=           -242.8293   ZZ=           -199.1445
   XY=            -31.4504   XZ=            -13.9818   YZ=             28.6403

 Normal termination of Gaussian 16 at Fri May 13 04:40:09 2022.
