 Gaussian 16, Revision C.01,
 Gaussian 16:  ES64L-G16RevC.01  3-Jul-2019

 ----------------------------------------------------------------------
 # B3LYP/6-31G* empiricaldispersion=gd3 guess=read geom=check nosymm in
 tegral(ultrafinegrid)
 ----------------------------------------------------------------------

 -----------------------------------------------------
 Candidate Structure: Conf:34 Charge calc in gas phase
 -----------------------------------------------------
 Structure from the checkpoint file:  "conf-34.chk"
 Charge =  1 Multiplicity = 1

                          Input orientation:
 ---------------------------------------------------------------------
 Center     Atomic      Atomic             Coordinates (Angstroms)
 Number     Number       Type             X           Y           Z
 ---------------------------------------------------------------------
      1          7           0       -5.663143    2.393032    0.582104
      2          1           0       -5.908935    1.574429   -0.017784
      3          1           0       -5.741291    2.080447    1.561702
      4          1           0       -6.294796    3.168061    0.350988
      5          6           0       -4.218537    2.771418    0.335758
      6          1           0       -4.083303    2.852400   -0.743964
      7          6           0       -3.442457    1.576441    0.918377
      8          6           0       -3.804431    4.073141    1.030237
      9          1           0       -3.742024    3.906021    2.111433
     10          1           0       -2.790336    4.279563    0.669188
     11          8           0       -3.854696    1.071108    1.964747
     12          6           0       -4.700966    5.306064    0.768773
     13          1           0       -4.176001    6.199947    1.111907
     14          1           0       -5.638370    5.234342    1.331981
     15          6           0       -5.020335    5.491443   -0.698303
     16          8           0       -4.427886    6.169082   -1.494262
     17          8           0       -6.107289    4.719642   -1.053245
     18          7           0       -2.387032    1.193568    0.189755
     19          1           0       -2.278444    1.658146   -0.734805
     20          6           0       -1.781484   -0.107352    0.366103
     21          1           0       -1.999379   -0.437903    1.386966
     22          6           0       -0.259679    0.035533    0.204496
     23          6           0       -2.418016   -1.117887   -0.653888
     24          1           0       -2.140098   -2.140833   -0.370948
     25          1           0       -1.991486   -0.926028   -1.645073
     26          8           0        0.291602    1.132574    0.201479
     27          6           0       -3.911054   -0.989673   -0.678500
     28          6           0       -4.640042   -0.230475   -1.544895
     29          1           0       -4.312356    0.318215   -2.417535
     30          6           0       -4.831950   -1.484241    0.327995
     31          6           0       -6.112973   -0.983308    0.009724
     32          6           0       -4.674099   -2.286153    1.466672
     33          1           0       -3.696119   -2.668144    1.745211
     34          7           0       -5.978637   -0.126984   -1.106400
     35          1           0       -6.727226   -0.080617   -1.790961
     36          6           0       -7.067300   -2.094265    1.883692
     37          1           0       -7.926086   -2.354837    2.494802
     38          6           0       -7.244781   -1.276770    0.769061
     39          1           0       -8.226606   -0.895622    0.500514
     40          6           0       -5.795291   -2.586774    2.231896
     41          1           0       -5.692201   -3.212084    3.113379
     42          7           0        0.449604   -1.130556    0.098377
     43          1           0       -0.066734   -1.918878   -0.275754
     44          6           0        1.830838   -1.055821   -0.382685
     45          1           0        2.365726   -0.349352    0.257112
     46          6           0        1.813021   -0.544025   -1.836941
     47          6           0        2.483005   -2.448556   -0.213962
     48          1           0        1.889681   -3.169173   -0.807498
     49          8           0        0.838626   -0.725009   -2.563949
     50          6           0        3.933154   -2.501242   -0.675853
     51          1           0        4.030467   -2.329799   -1.750746
     52          1           0        4.341753   -3.487267   -0.440136
     53          1           0        4.531931   -1.755883   -0.140165
     54          8           0        2.483008   -2.804813    1.159438
     55          1           0        1.598149   -2.627036    1.518001
     56          7           0        2.925599    0.129462   -2.220150
     57          1           0        3.738541    0.143460   -1.615512
     58          6           0        3.138624    0.604998   -3.575933
     59          1           0        2.504819    0.016951   -4.247793
     60          6           0        4.600046    0.358056   -3.931512
     61          6           0        2.785200    2.104906   -3.731920
     62          1           0        3.049287    2.422078   -4.747211
     63          1           0        3.412479    2.681358   -3.037994
     64          8           0        5.450566    0.019019   -3.137477
     65          6           0        1.304713    2.369105   -3.449565
     66          1           0        0.688771    1.842346   -4.189849
     67          1           0        1.038467    1.949057   -2.474374
     68          6           0        0.936445    3.857996   -3.448221
     69          1           0        1.515923    4.396185   -2.688985
     70          1           0        1.176658    4.334147   -4.404095
     71          7           0       -0.506407    4.075540   -3.215353
     72          1           0       -1.053716    3.967501   -4.061941
     73          7           0       -0.529369    3.722541   -0.901222
     74          1           0       -0.443169    2.919134   -0.278528
     75          1           0        0.288967    4.314963   -0.908343
     76          7           0       -2.201804    2.757409   -2.171740
     77          1           0       -2.441286    2.531314   -3.135782
     78          6           0       -1.113986    3.475831   -2.121883
     79          8           0        4.835211    0.596012   -5.234290
     80          1           0       -6.269982    4.876375   -2.003508
     81          1           0        5.787466    0.445917   -5.391133
 ---------------------------------------------------------------------

 SCF Done:  E(RB3LYP) =  -2054.05598965     A.U. after    1 cycles

 Alpha  occ. eigenvalues --  -19.31627 -19.28502 -19.25270 -19.23026 -19.22867
 Alpha  occ. eigenvalues --  -19.22818 -19.21954 -19.20499 -14.56655 -14.48933
 Alpha  occ. eigenvalues --  -14.46129 -14.45384 -14.44924 -14.44461 -14.43111
 Alpha  occ. eigenvalues --  -14.39542 -10.43369 -10.40993 -10.39836 -10.39500
 Alpha  occ. eigenvalues --  -10.38590 -10.37634 -10.36745 -10.33949 -10.32779
 Alpha  occ. eigenvalues --  -10.32623 -10.32341 -10.32018 -10.31999 -10.31981
 Alpha  occ. eigenvalues --  -10.31889 -10.31485 -10.30328 -10.29321 -10.28630
 Alpha  occ. eigenvalues --  -10.28482 -10.28120 -10.27999 -10.27848 -10.27336
 Alpha  occ. eigenvalues --  -10.27096 -10.24918  -1.21678  -1.19502  -1.15442
 Alpha  occ. eigenvalues --   -1.14624  -1.13049  -1.12331  -1.10861  -1.10637
 Alpha  occ. eigenvalues --   -1.09862  -1.07877  -1.07419  -1.03406  -1.02383
 Alpha  occ. eigenvalues --   -1.01659  -0.97801  -0.94352  -0.93635  -0.92850
 Alpha  occ. eigenvalues --   -0.90923  -0.89140  -0.87547  -0.85888  -0.84286
 Alpha  occ. eigenvalues --   -0.83122  -0.83057  -0.81825  -0.79069  -0.77601
 Alpha  occ. eigenvalues --   -0.76314  -0.75690  -0.72115  -0.71715  -0.71572
 Alpha  occ. eigenvalues --   -0.70945  -0.70338  -0.69268  -0.69084  -0.68871
 Alpha  occ. eigenvalues --   -0.68459  -0.68023  -0.67547  -0.67112  -0.66182
 Alpha  occ. eigenvalues --   -0.64702  -0.63928  -0.63105  -0.62094  -0.61467
 Alpha  occ. eigenvalues --   -0.59822  -0.59483  -0.59371  -0.58812  -0.58621
 Alpha  occ. eigenvalues --   -0.58116  -0.58101  -0.57851  -0.57174  -0.56873
 Alpha  occ. eigenvalues --   -0.56809  -0.56230  -0.55971  -0.55597  -0.55562
 Alpha  occ. eigenvalues --   -0.54651  -0.54532  -0.53961  -0.53741  -0.53090
 Alpha  occ. eigenvalues --   -0.52757  -0.52476  -0.52071  -0.51599  -0.51204
 Alpha  occ. eigenvalues --   -0.51085  -0.50668  -0.50328  -0.49694  -0.49417
 Alpha  occ. eigenvalues --   -0.48975  -0.48638  -0.48389  -0.48074  -0.47869
 Alpha  occ. eigenvalues --   -0.47604  -0.47171  -0.46872  -0.46481  -0.46110
 Alpha  occ. eigenvalues --   -0.45791  -0.45546  -0.44861  -0.44470  -0.44038
 Alpha  occ. eigenvalues --   -0.43699  -0.43501  -0.43494  -0.42920  -0.42411
 Alpha  occ. eigenvalues --   -0.40932  -0.40563  -0.38818  -0.38515  -0.37962
 Alpha  occ. eigenvalues --   -0.37478  -0.37201  -0.36759  -0.36024  -0.35758
 Alpha  occ. eigenvalues --   -0.35401  -0.34826  -0.34271  -0.33553  -0.32747
 Alpha  occ. eigenvalues --   -0.32514  -0.30984
 Alpha virt. eigenvalues --   -0.11289  -0.10841  -0.09488  -0.09121  -0.08260
 Alpha virt. eigenvalues --   -0.07952  -0.06590  -0.06326  -0.06161  -0.04727
 Alpha virt. eigenvalues --   -0.03116  -0.03000  -0.02188  -0.01596  -0.00540

 Mulliken charges:
               1
     1  N   -0.774578
     2  H    0.438776
     3  H    0.409946
     4  H    0.413674
     5  C   -0.133481
     6  H    0.228961
     7  C    0.622682
     8  C   -0.303604
     9  H    0.190800
    10  H    0.226817
    11  O   -0.540251
    12  C   -0.368621
    13  H    0.217694
    14  H    0.170886
    15  C    0.585887
    16  O   -0.412101
    17  O   -0.607441
    18  N   -0.612813
    19  H    0.410172
    20  C   -0.081726
    21  H    0.215849
    22  C    0.653417
    23  C   -0.398633
    24  H    0.161988
    25  H    0.194224
    26  O   -0.525437
    27  C    0.099211
    28  C   -0.055434
    29  H    0.164376
    30  C    0.142697
    31  C    0.225126
    32  C   -0.190359
    33  H    0.135519
    34  N   -0.717508
    35  H    0.350593
    36  C   -0.143115
    37  H    0.153655
    38  C   -0.185566
    39  H    0.139457
    40  C   -0.131975
    41  H    0.152389
    42  N   -0.630055
    43  H    0.350802
    44  C   -0.088824
    45  H    0.188744
    46  C    0.637453
    47  C    0.135544
    48  H    0.125310
    49  O   -0.550665
    50  C   -0.471231
    51  H    0.162021
    52  H    0.186025
    53  H    0.161228
    54  O   -0.613977
    55  H    0.399195
    56  N   -0.600450
    57  H    0.357589
    58  C   -0.051320
    59  H    0.205028
    60  C    0.587770
    61  C   -0.270117
    62  H    0.172137
    63  H    0.149220
    64  O   -0.458921
    65  C   -0.275250
    66  H    0.147603
    67  H    0.176756
    68  C   -0.172971
    69  H    0.157858
    70  H    0.170430
    71  N   -0.567762
    72  H    0.322184
    73  N   -0.766924
    74  H    0.393151
    75  H    0.341022
    76  N   -0.740204
    77  H    0.280672
    78  C    0.631984
    79  O   -0.559012
    80  H    0.427001
    81  H    0.428803
 Sum of Mulliken charges =   1.00000

 Dipole moment (field-independent basis, Debye):
    X=            -15.8969    Y=              8.6172    Z=             -6.7663  Tot=             19.3068
 Quadrupole moment (field-independent basis, Debye-Ang):
   XX=            -95.1334   YY=           -205.9641   ZZ=           -203.8303
   XY=            -30.8036   XZ=            -18.5234   YZ=            -11.8817

 Normal termination of Gaussian 16 at Fri May 13 04:35:10 2022.
