 Gaussian 16, Revision C.01,
 Gaussian 16:  ES64L-G16RevC.01  3-Jul-2019

 ----------------------------------------------------------------------
 # B3LYP/6-31G* empiricaldispersion=gd3 guess=read geom=check nosymm in
 tegral(ultrafinegrid)
 ----------------------------------------------------------------------

 ------------------------------------------------------
 Candidate Structure: Conf:535 Charge calc in gas phase
 ------------------------------------------------------
 Structure from the checkpoint file:  "conf-535.chk"
 Charge =  1 Multiplicity = 1

                          Input orientation:
 ---------------------------------------------------------------------
 Center     Atomic      Atomic             Coordinates (Angstroms)
 Number     Number       Type             X           Y           Z
 ---------------------------------------------------------------------
      1          7           0       -3.544476    1.934690    4.417140
      2          1           0       -4.389670    1.579746    4.874180
      3          1           0       -2.839305    1.158286    4.381528
      4          1           0       -3.173526    2.720948    4.958450
      5          6           0       -3.757112    2.283625    2.952387
      6          1           0       -4.818483    2.499316    2.806467
      7          6           0       -3.323488    1.000272    2.211286
      8          6           0       -2.876022    3.491612    2.549421
      9          1           0       -2.833755    3.520625    1.456884
     10          1           0       -3.377960    4.409565    2.876402
     11          8           0       -2.568841    0.216126    2.797894
     12          6           0       -1.438089    3.424445    3.093814
     13          1           0       -1.039144    2.403079    3.056650
     14          1           0       -1.365860    3.759719    4.135382
     15          6           0       -0.381473    4.216785    2.310384
     16          8           0        0.709131    4.436134    2.802117
     17          8           0       -0.757122    4.515812    1.081834
     18          7           0       -3.750883    0.853638    0.941814
     19          1           0       -4.189264    1.671462    0.529100
     20          6           0       -2.895346    0.118496   -0.015822
     21          1           0       -2.636081   -0.837365    0.442517
     22          6           0       -1.647256    1.010759   -0.181421
     23          6           0       -3.588261   -0.106026   -1.372937
     24          1           0       -4.101161    0.816161   -1.670679
     25          1           0       -4.354367   -0.881488   -1.267319
     26          8           0       -1.820324    2.224674   -0.322750
     27          6           0       -2.549800   -0.448267   -2.405687
     28          6           0       -1.795284   -1.597447   -2.484821
     29          1           0       -1.871268   -2.518028   -1.921262
     30          6           0       -2.024540    0.454369   -3.399128
     31          6           0       -0.951918   -0.217491   -4.048392
     32          6           0       -2.367196    1.752489   -3.814053
     33          1           0       -3.175337    2.293922   -3.330441
     34          7           0       -0.845100   -1.464062   -3.473734
     35          1           0       -0.113595   -2.131569   -3.665883
     36          6           0       -0.595400    1.647345   -5.489233
     37          1           0       -0.063841    2.124587   -6.307354
     38          6           0       -0.224794    0.368558   -5.090033
     39          1           0        0.591717   -0.159343   -5.573767
     40          6           0       -1.657869    2.334043   -4.859529
     41          1           0       -1.933199    3.325289   -5.209843
     42          7           0       -0.454408    0.406418   -0.035696
     43          1           0       -0.376924   -0.580745   -0.256602
     44          6           0        0.803291    1.118808    0.138532
     45          1           0        0.590347    2.189075    0.146577
     46          6           0        1.734617    0.722322   -1.010752
     47          6           0        1.394014    0.712260    1.527531
     48          1           0        1.738566   -0.331585    1.446156
     49          8           0        1.638357   -0.388524   -1.531613
     50          6           0        2.539476    1.610383    1.966588
     51          1           0        3.388666    1.524793    1.284530
     52          1           0        2.864997    1.307260    2.965750
     53          1           0        2.205448    2.651362    2.021382
     54          8           0        0.379389    0.803578    2.526286
     55          1           0       -0.339857    0.195898    2.288117
     56          7           0        2.652022    1.656121   -1.360978
     57          1           0        2.613736    2.558473   -0.898543
     58          6           0        3.657014    1.425989   -2.381984
     59          1           0        3.364429    0.503845   -2.896283
     60          6           0        5.060856    1.166859   -1.830884
     61          6           0        3.704396    2.584944   -3.399102
     62          1           0        4.523695    2.389448   -4.095081
     63          1           0        3.977063    3.497924   -2.852657
     64          8           0        6.023446    0.999597   -2.542641
     65          6           0        2.361728    2.767988   -4.132331
     66          1           0        2.429961    2.386102   -5.157534
     67          1           0        1.588161    2.170743   -3.641157
     68          6           0        1.876587    4.226785   -4.193806
     69          1           0        2.563192    4.838803   -4.786380
     70          1           0        0.906808    4.273596   -4.703429
     71          7           0        1.771791    4.879908   -2.885521
     72          1           0        2.584401    5.401451   -2.590764
     73          7           0       -0.122600    3.727900   -2.172738
     74          1           0       -0.711840    3.347619   -1.435895
     75          1           0       -0.360730    3.481344   -3.121170
     76          7           0        1.235667    4.683008   -0.582730
     77          1           0        2.065490    5.251821   -0.435596
     78          6           0        0.979109    4.441294   -1.849854
     79          8           0        5.119855    1.150564   -0.480560
     80          1           0        0.081650    4.711106    0.476674
     81          1           0        6.050505    0.969847   -0.246027
 ---------------------------------------------------------------------

 SCF Done:  E(RB3LYP) =  -2054.05901814     A.U. after    1 cycles

 Alpha  occ. eigenvalues --  -19.28310 -19.27770 -19.22985 -19.22964 -19.22620
 Alpha  occ. eigenvalues --  -19.21528 -19.20439 -19.18677 -14.60964 -14.50583
 Alpha  occ. eigenvalues --  -14.46684 -14.46661 -14.44837 -14.44192 -14.42068
 Alpha  occ. eigenvalues --  -14.38037 -10.44691 -10.41206 -10.39952 -10.39799
 Alpha  occ. eigenvalues --  -10.38046 -10.37887 -10.37592 -10.35492 -10.32442
 Alpha  occ. eigenvalues --  -10.32338 -10.32216 -10.31765 -10.31134 -10.31109
 Alpha  occ. eigenvalues --  -10.30573 -10.30517 -10.29254 -10.27707 -10.27549
 Alpha  occ. eigenvalues --  -10.27410 -10.27404 -10.27257 -10.27093 -10.26767
 Alpha  occ. eigenvalues --  -10.26725 -10.23845  -1.20428  -1.18433  -1.15218
 Alpha  occ. eigenvalues --   -1.14729  -1.14472  -1.12330  -1.10445  -1.09366
 Alpha  occ. eigenvalues --   -1.07113  -1.06882  -1.06716  -1.05844  -1.02973
 Alpha  occ. eigenvalues --   -1.01592  -0.97359  -0.94060  -0.93116  -0.92556
 Alpha  occ. eigenvalues --   -0.91178  -0.88521  -0.86938  -0.85795  -0.84666
 Alpha  occ. eigenvalues --   -0.82612  -0.82193  -0.80825  -0.79402  -0.77271
 Alpha  occ. eigenvalues --   -0.76362  -0.75666  -0.74561  -0.73382  -0.72417
 Alpha  occ. eigenvalues --   -0.71079  -0.70995  -0.70098  -0.69062  -0.68113
 Alpha  occ. eigenvalues --   -0.67957  -0.67844  -0.67807  -0.66383  -0.66124
 Alpha  occ. eigenvalues --   -0.65427  -0.64400  -0.63288  -0.62704  -0.62226
 Alpha  occ. eigenvalues --   -0.61300  -0.60533  -0.59830  -0.59187  -0.58309
 Alpha  occ. eigenvalues --   -0.57860  -0.57379  -0.57083  -0.56258  -0.56119
 Alpha  occ. eigenvalues --   -0.55977  -0.55935  -0.55253  -0.55083  -0.54578
 Alpha  occ. eigenvalues --   -0.54256  -0.53815  -0.53584  -0.53226  -0.52671
 Alpha  occ. eigenvalues --   -0.52017  -0.51646  -0.51572  -0.50972  -0.50746
 Alpha  occ. eigenvalues --   -0.50418  -0.50084  -0.49862  -0.49700  -0.49376
 Alpha  occ. eigenvalues --   -0.49091  -0.48729  -0.48263  -0.47445  -0.47216
 Alpha  occ. eigenvalues --   -0.46965  -0.46541  -0.46184  -0.46129  -0.45643
 Alpha  occ. eigenvalues --   -0.44986  -0.44123  -0.43960  -0.43460  -0.43259
 Alpha  occ. eigenvalues --   -0.42966  -0.42541  -0.42270  -0.42084  -0.41700
 Alpha  occ. eigenvalues --   -0.41153  -0.41113  -0.39369  -0.37371  -0.36996
 Alpha  occ. eigenvalues --   -0.36916  -0.36254  -0.36106  -0.35996  -0.35481
 Alpha  occ. eigenvalues --   -0.33956  -0.33569  -0.32930  -0.32487  -0.31299
 Alpha  occ. eigenvalues --   -0.31094  -0.29197
 Alpha virt. eigenvalues --   -0.14350  -0.11511  -0.10450  -0.09101  -0.07099
 Alpha virt. eigenvalues --   -0.06993  -0.06598  -0.06442  -0.05146  -0.04563
 Alpha virt. eigenvalues --   -0.03691  -0.03412  -0.02644  -0.01982  -0.01700

 Mulliken charges:
               1
     1  N   -0.745473
     2  H    0.418903
     3  H    0.436047
     4  H    0.422558
     5  C   -0.132178
     6  H    0.211604
     7  C    0.655247
     8  C   -0.308267
     9  H    0.246946
    10  H    0.180434
    11  O   -0.533105
    12  C   -0.433651
    13  H    0.224862
    14  H    0.156192
    15  C    0.608809
    16  O   -0.478788
    17  O   -0.613566
    18  N   -0.573403
    19  H    0.354857
    20  C   -0.061726
    21  H    0.183978
    22  C    0.629258
    23  C   -0.360643
    24  H    0.162780
    25  H    0.182959
    26  O   -0.550480
    27  C    0.021105
    28  C   -0.000320
    29  H    0.165407
    30  C    0.095382
    31  C    0.330601
    32  C   -0.203968
    33  H    0.135435
    34  N   -0.670730
    35  H    0.349671
    36  C   -0.150604
    37  H    0.143527
    38  C   -0.157193
    39  H    0.146374
    40  C   -0.190662
    41  H    0.144995
    42  N   -0.597006
    43  H    0.356107
    44  C   -0.112307
    45  H    0.203927
    46  C    0.644006
    47  C    0.132926
    48  H    0.132717
    49  O   -0.549572
    50  C   -0.506261
    51  H    0.173803
    52  H    0.168838
    53  H    0.196735
    54  O   -0.631936
    55  H    0.410120
    56  N   -0.602376
    57  H    0.353368
    58  C   -0.072516
    59  H    0.215297
    60  C    0.597333
    61  C   -0.280848
    62  H    0.193995
    63  H    0.125831
    64  O   -0.448052
    65  C   -0.277868
    66  H    0.153439
    67  H    0.175420
    68  C   -0.175226
    69  H    0.172165
    70  H    0.162946
    71  N   -0.594859
    72  H    0.331502
    73  N   -0.827875
    74  H    0.416576
    75  H    0.366801
    76  N   -0.806691
    77  H    0.297335
    78  C    0.723154
    79  O   -0.560457
    80  H    0.472943
    81  H    0.423397
 Sum of Mulliken charges =   1.00000

 Dipole moment (field-independent basis, Debye):
    X=            -11.8128    Y=              7.2111    Z=              4.8465  Tot=             14.6639
 Quadrupole moment (field-independent basis, Debye-Ang):
   XX=           -167.1568   YY=           -212.4080   ZZ=           -160.7113
   XY=            -13.4090   XZ=            -61.6159   YZ=              3.0864

 Normal termination of Gaussian 16 at Fri May 13 04:40:17 2022.
