 Gaussian 16, Revision C.01,
 Gaussian 16:  ES64L-G16RevC.01  3-Jul-2019

 ----------------------------------------------------------------------
 # B3LYP/6-31G* empiricaldispersion=gd3 guess=read geom=check nosymm in
 tegral(ultrafinegrid)
 ----------------------------------------------------------------------

 ------------------------------------------------------
 Candidate Structure: Conf:684 Charge calc in gas phase
 ------------------------------------------------------
 Structure from the checkpoint file:  "conf-684.chk"
 Charge =  1 Multiplicity = 1

                          Input orientation:
 ---------------------------------------------------------------------
 Center     Atomic      Atomic             Coordinates (Angstroms)
 Number     Number       Type             X           Y           Z
 ---------------------------------------------------------------------
      1          7           0       -4.355091   -2.401969   -3.091573
      2          1           0       -5.202797   -2.807613   -2.683653
      3          1           0       -4.520989   -1.367817   -3.228307
      4          1           0       -4.160657   -2.869120   -3.981488
      5          6           0       -3.173784   -2.416155   -2.134955
      6          1           0       -3.327050   -3.232940   -1.425078
      7          6           0       -3.279140   -1.025226   -1.460802
      8          6           0       -1.855756   -2.600148   -2.905462
      9          1           0       -1.034190   -2.483891   -2.192824
     10          1           0       -1.802432   -3.628304   -3.279857
     11          8           0       -3.894022   -0.143100   -2.069812
     12          6           0       -1.645567   -1.595397   -4.046226
     13          1           0       -1.714812   -0.566231   -3.684936
     14          1           0       -2.395757   -1.697661   -4.843257
     15          6           0       -0.284563   -1.707787   -4.722550
     16          8           0        0.136033   -0.852222   -5.469615
     17          8           0        0.356589   -2.838942   -4.406545
     18          7           0       -2.674621   -0.875987   -0.278332
     19          1           0       -2.230563   -1.679846    0.150220
     20          6           0       -2.611893    0.416756    0.432366
     21          1           0       -3.527081    0.963166    0.201169
     22          6           0       -1.456496    1.300995   -0.081074
     23          6           0       -2.510301    0.155111    1.953535
     24          1           0       -1.571021   -0.374268    2.164733
     25          1           0       -3.333684   -0.520292    2.227401
     26          8           0       -1.615785    2.490860   -0.289185
     27          6           0       -2.580595    1.418238    2.749888
     28          6           0       -1.566313    2.003632    3.467076
     29          1           0       -0.552699    1.664530    3.630003
     30          6           0       -3.727411    2.281985    2.869332
     31          6           0       -3.334851    3.381743    3.678076
     32          6           0       -5.043548    2.232418    2.379518
     33          1           0       -5.375740    1.398364    1.765320
     34          7           0       -2.012922    3.180603    4.026425
     35          1           0       -1.464309    3.792617    4.610241
     36          6           0       -5.506201    4.345356    3.501633
     37          1           0       -6.213526    5.136037    3.733750
     38          6           0       -4.212135    4.420468    4.003322
     39          1           0       -3.895281    5.254244    4.623493
     40          6           0       -5.919457    3.261630    2.698851
     41          1           0       -6.939764    3.235966    2.327231
     42          7           0       -0.262673    0.651799   -0.214153
     43          1           0       -0.227407   -0.356396   -0.164499
     44          6           0        0.887258    1.248953   -0.851720
     45          1           0        0.617541    2.272106   -1.132988
     46          6           0        1.236189    0.403616   -2.084729
     47          6           0        2.119649    1.263871    0.101581
     48          1           0        2.930055    1.814890   -0.401663
     49          8           0        0.712229   -0.698159   -2.283290
     50          6           0        1.804706    1.943644    1.424144
     51          1           0        1.424782    2.957645    1.263638
     52          1           0        2.706583    1.986704    2.040674
     53          1           0        1.042324    1.370647    1.957556
     54          8           0        2.523298   -0.073129    0.380920
     55          1           0        3.010648   -0.413985   -0.389231
     56          7           0        2.235041    0.868996   -2.865607
     57          1           0        2.640118    1.778011   -2.684320
     58          6           0        2.798473    0.067474   -3.947170
     59          1           0        2.047894   -0.087575   -4.724831
     60          6           0        3.188496   -1.320229   -3.454752
     61          6           0        4.029194    0.785628   -4.531612
     62          1           0        4.813299    0.857520   -3.768778
     63          1           0        3.721548    1.811406   -4.764316
     64          8           0        3.055002   -2.342204   -4.098336
     65          6           0        4.575400    0.122759   -5.802939
     66          1           0        4.837468   -0.925777   -5.610065
     67          1           0        3.787285    0.105558   -6.568657
     68          6           0        5.818175    0.839647   -6.362108
     69          1           0        6.626180    0.801364   -5.627235
     70          1           0        6.172273    0.307173   -7.251518
     71          7           0        5.598944    2.239072   -6.739347
     72          1           0        4.921598    2.347778   -7.485993
     73          7           0        6.426345    3.142705   -4.743810
     74          1           0        6.416363    3.987180   -4.181269
     75          1           0        7.367490    2.922021   -5.054865
     76          7           0        4.678060    4.246773   -5.785283
     77          1           0        3.980468    4.150763   -6.526112
     78          6           0        5.503387    3.262018   -5.789624
     79          8           0        3.808397   -1.308046   -2.250727
     80          1           0        1.299079   -2.755676   -4.682508
     81          1           0        4.065240   -2.230196   -2.055912
 ---------------------------------------------------------------------

 SCF Done:  E(RB3LYP) =  -2054.01701727     A.U. after    1 cycles

 Alpha  occ. eigenvalues --  -19.30746 -19.27599 -19.27543 -19.25003 -19.22773
 Alpha  occ. eigenvalues --  -19.22677 -19.22331 -19.20229 -14.61262 -14.51151
 Alpha  occ. eigenvalues --  -14.46812 -14.44959 -14.44557 -14.41320 -14.40132
 Alpha  occ. eigenvalues --  -14.34565 -10.44408 -10.42906 -10.41710 -10.41413
 Alpha  occ. eigenvalues --  -10.39231 -10.37711 -10.34076 -10.34008 -10.33729
 Alpha  occ. eigenvalues --  -10.33187 -10.33131 -10.32340 -10.31838 -10.29612
 Alpha  occ. eigenvalues --  -10.29330 -10.28982 -10.28120 -10.27995 -10.26766
 Alpha  occ. eigenvalues --  -10.25484 -10.25339 -10.24898 -10.24846 -10.24778
 Alpha  occ. eigenvalues --  -10.24298 -10.24077  -1.21463  -1.20137  -1.18895
 Alpha  occ. eigenvalues --   -1.15028  -1.14546  -1.12389  -1.12336  -1.10332
 Alpha  occ. eigenvalues --   -1.10117  -1.07311  -1.04476  -1.03600  -1.03265
 Alpha  occ. eigenvalues --   -1.01514  -0.94991  -0.94929  -0.90761  -0.90358
 Alpha  occ. eigenvalues --   -0.89721  -0.89177  -0.87259  -0.86117  -0.83803
 Alpha  occ. eigenvalues --   -0.82660  -0.79847  -0.79547  -0.78966  -0.78124
 Alpha  occ. eigenvalues --   -0.76134  -0.75383  -0.75033  -0.74098  -0.73148
 Alpha  occ. eigenvalues --   -0.72048  -0.70445  -0.69712  -0.69315  -0.68535
 Alpha  occ. eigenvalues --   -0.67802  -0.67091  -0.66332  -0.66204  -0.65719
 Alpha  occ. eigenvalues --   -0.63964  -0.63562  -0.62661  -0.61243  -0.61218
 Alpha  occ. eigenvalues --   -0.60618  -0.60517  -0.59751  -0.59585  -0.59448
 Alpha  occ. eigenvalues --   -0.59159  -0.58071  -0.57128  -0.56625  -0.56139
 Alpha  occ. eigenvalues --   -0.55858  -0.55382  -0.54967  -0.54595  -0.54195
 Alpha  occ. eigenvalues --   -0.53735  -0.53261  -0.53118  -0.52877  -0.52383
 Alpha  occ. eigenvalues --   -0.52074  -0.51764  -0.51435  -0.50627  -0.50253
 Alpha  occ. eigenvalues --   -0.50078  -0.49720  -0.49427  -0.49273  -0.48987
 Alpha  occ. eigenvalues --   -0.48502  -0.48150  -0.47822  -0.47655  -0.47285
 Alpha  occ. eigenvalues --   -0.46806  -0.46792  -0.46497  -0.45976  -0.45681
 Alpha  occ. eigenvalues --   -0.45281  -0.44775  -0.44620  -0.44329  -0.43039
 Alpha  occ. eigenvalues --   -0.42308  -0.42008  -0.41794  -0.41571  -0.41312
 Alpha  occ. eigenvalues --   -0.41159  -0.40022  -0.39721  -0.39378  -0.38846
 Alpha  occ. eigenvalues --   -0.36743  -0.36638  -0.36412  -0.35634  -0.34392
 Alpha  occ. eigenvalues --   -0.33739  -0.33022  -0.32690  -0.31742  -0.28689
 Alpha  occ. eigenvalues --   -0.28411  -0.26871
 Alpha virt. eigenvalues --   -0.13399  -0.12079  -0.10341  -0.09075  -0.07735
 Alpha virt. eigenvalues --   -0.07434  -0.07121  -0.06706  -0.06205  -0.03527
 Alpha virt. eigenvalues --   -0.03499  -0.03062  -0.02103  -0.01743  -0.01123

 Mulliken charges:
               1
     1  N   -0.749562
     2  H    0.420241
     3  H    0.436556
     4  H    0.417137
     5  C   -0.133816
     6  H    0.207966
     7  C    0.670536
     8  C   -0.291058
     9  H    0.223264
    10  H    0.190982
    11  O   -0.519701
    12  C   -0.390061
    13  H    0.221813
    14  H    0.155255
    15  C    0.633979
    16  O   -0.468699
    17  O   -0.589864
    18  N   -0.617096
    19  H    0.348509
    20  C   -0.074510
    21  H    0.221854
    22  C    0.632920
    23  C   -0.390251
    24  H    0.150584
    25  H    0.164221
    26  O   -0.486141
    27  C    0.064179
    28  C    0.012333
    29  H    0.159838
    30  C    0.100136
    31  C    0.316851
    32  C   -0.207707
    33  H    0.105073
    34  N   -0.690485
    35  H    0.337996
    36  C   -0.149003
    37  H    0.139656
    38  C   -0.155679
    39  H    0.137517
    40  C   -0.136255
    41  H    0.130125
    42  N   -0.578549
    43  H    0.325213
    44  C   -0.089006
    45  H    0.203374
    46  C    0.624019
    47  C    0.119909
    48  H    0.124305
    49  O   -0.564282
    50  C   -0.452224
    51  H    0.165120
    52  H    0.171069
    53  H    0.160059
    54  O   -0.646692
    55  H    0.419257
    56  N   -0.628435
    57  H    0.356196
    58  C   -0.009010
    59  H    0.232845
    60  C    0.629061
    61  C   -0.332147
    62  H    0.174850
    63  H    0.181707
    64  O   -0.498330
    65  C   -0.278337
    66  H    0.156656
    67  H    0.151033
    68  C   -0.152907
    69  H    0.164135
    70  H    0.164759
    71  N   -0.575106
    72  H    0.314940
    73  N   -0.739882
    74  H    0.340812
    75  H    0.330049
    76  N   -0.631408
    77  H    0.266986
    78  C    0.541019
    79  O   -0.573268
    80  H    0.452448
    81  H    0.430128
 Sum of Mulliken charges =   1.00000

 Dipole moment (field-independent basis, Debye):
    X=             -6.0717    Y=             -9.6036    Z=             -9.0867  Tot=             14.5486
 Quadrupole moment (field-independent basis, Debye-Ang):
   XX=           -134.1543   YY=           -213.5411   ZZ=           -178.6796
   XY=             45.5418   XZ=              6.8764   YZ=             44.3877

 Normal termination of Gaussian 16 at Fri May 13 04:40:04 2022.
