 Gaussian 16, Revision C.01,
 Gaussian 16:  ES64L-G16RevC.01  3-Jul-2019

 ----------------------------------------------------------------------
 # B3LYP/6-31G* empiricaldispersion=gd3 guess=read geom=check nosymm in
 tegral(ultrafinegrid)
 ----------------------------------------------------------------------

 ------------------------------------------------------
 Candidate Structure: Conf:904 Charge calc in gas phase
 ------------------------------------------------------
 Structure from the checkpoint file:  "conf-904.chk"
 Charge =  1 Multiplicity = 1

                          Input orientation:
 ---------------------------------------------------------------------
 Center     Atomic      Atomic             Coordinates (Angstroms)
 Number     Number       Type             X           Y           Z
 ---------------------------------------------------------------------
      1          7           0       -2.971873    1.825842    4.629893
      2          1           0       -3.870230    2.048379    5.067392
      3          1           0       -2.849931    0.764432    4.606147
      4          1           0       -2.225606    2.270001    5.171673
      5          6           0       -2.920296    2.156713    3.150409
      6          1           0       -3.758935    2.817559    2.915014
      7          6           0       -3.058525    0.760427    2.493216
      8          6           0       -1.576425    2.792782    2.771844
      9          1           0       -0.769454    2.101448    3.045270
     10          1           0       -1.539955    2.862522    1.681686
     11          8           0       -2.919440   -0.230415    3.223059
     12          6           0       -1.359857    4.186704    3.383976
     13          1           0       -1.356080    4.175780    4.478923
     14          1           0       -2.156887    4.864939    3.054223
     15          6           0       -0.021647    4.779261    2.967607
     16          8           0        0.853726    5.109039    3.727858
     17          8           0        0.057802    4.879087    1.620499
     18          7           0       -3.250353    0.730369    1.179502
     19          1           0       -3.425888    1.581913    0.655117
     20          6           0       -3.008560   -0.476915    0.402442
     21          1           0       -3.720427   -1.245224    0.719321
     22          6           0       -1.559470   -0.943306    0.656542
     23          6           0       -3.184938   -0.157345   -1.109133
     24          1           0       -3.214183   -1.116616   -1.639355
     25          1           0       -2.285209    0.359785   -1.459161
     26          8           0       -0.694684   -0.155077    1.055795
     27          6           0       -4.402601    0.663747   -1.395467
     28          6           0       -4.415606    1.946193   -1.898532
     29          1           0       -3.590137    2.561208   -2.232642
     30          6           0       -5.778449    0.296666   -1.164240
     31          6           0       -6.575739    1.404679   -1.557359
     32          6           0       -6.410734   -0.858790   -0.671996
     33          1           0       -5.828938   -1.729552   -0.380687
     34          7           0       -5.715610    2.397740   -1.990781
     35          1           0       -6.000055    3.263923   -2.422618
     36          6           0       -8.567664    0.233250   -0.981964
     37          1           0       -9.649897    0.183427   -0.908154
     38          6           0       -7.971772    1.388814   -1.472796
     39          1           0       -8.567298    2.242177   -1.784499
     40          6           0       -7.796268   -0.880001   -0.585666
     41          1           0       -8.298868   -1.768627   -0.215631
     42          7           0       -1.324730   -2.230184    0.356380
     43          1           0       -2.035295   -2.821000   -0.066504
     44          6           0        0.002617   -2.842955    0.398722
     45          1           0        0.528632   -2.458444    1.278114
     46          6           0        0.762577   -2.453991   -0.886941
     47          6           0       -0.182244   -4.374342    0.480210
     48          1           0        0.805209   -4.832122    0.330805
     49          8           0        0.855104   -3.222368   -1.845887
     50          6           0       -0.763435   -4.825128    1.812371
     51          1           0       -0.089201   -4.571604    2.637373
     52          1           0       -0.909796   -5.908252    1.796759
     53          1           0       -1.733193   -4.351203    1.997396
     54          8           0       -1.080334   -4.779644   -0.550332
     55          1           0       -0.600362   -4.612277   -1.385136
     56          7           0        1.273119   -1.199539   -0.887832
     57          1           0        0.967973   -0.581332   -0.141636
     58          6           0        1.840175   -0.618336   -2.104921
     59          1           0        1.965755    0.451254   -1.892463
     60          6           0        0.851892   -0.702301   -3.277685
     61          6           0        3.206023   -1.223087   -2.476537
     62          1           0        3.027963   -2.199013   -2.936648
     63          1           0        3.751027   -1.393720   -1.539546
     64          8           0        1.146383   -0.896265   -4.429364
     65          6           0        4.040260   -0.330390   -3.402790
     66          1           0        3.474440   -0.117781   -4.314058
     67          1           0        4.242632    0.629028   -2.903529
     68          6           0        5.384366   -0.979150   -3.785235
     69          1           0        6.012583   -0.251028   -4.310211
     70          1           0        5.934242   -1.264504   -2.879659
     71          7           0        5.278425   -2.161148   -4.625692
     72          1           0        4.881511   -2.974408   -4.170175
     73          7           0        4.667444   -3.316035   -6.534840
     74          1           0        4.518961   -3.228382   -7.534347
     75          1           0        5.386099   -4.003393   -6.329194
     76          7           0        4.798734   -1.003965   -6.695759
     77          1           0        4.874750   -0.149130   -6.146188
     78          6           0        4.914415   -2.057193   -5.972373
     79          8           0       -0.432311   -0.463959   -2.881632
     80          1           0        0.929430    5.266231    1.409378
     81          1           0       -0.969247   -0.538515   -3.693568
 ---------------------------------------------------------------------

 SCF Done:  E(RB3LYP) =  -2054.00670795     A.U. after    1 cycles

 Alpha  occ. eigenvalues --  -19.30921 -19.28112 -19.27692 -19.25213 -19.22894
 Alpha  occ. eigenvalues --  -19.21913 -19.21665 -19.21053 -14.61265 -14.50734
 Alpha  occ. eigenvalues --  -14.47425 -14.46916 -14.44642 -14.38918 -14.36998
 Alpha  occ. eigenvalues --  -14.31700 -10.44685 -10.43750 -10.42305 -10.39971
 Alpha  occ. eigenvalues --  -10.39782 -10.37677 -10.35673 -10.35425 -10.34201
 Alpha  occ. eigenvalues --  -10.32437 -10.32384 -10.32231 -10.31990 -10.31206
 Alpha  occ. eigenvalues --  -10.30944 -10.30733 -10.28422 -10.27544 -10.27452
 Alpha  occ. eigenvalues --  -10.27393 -10.27197 -10.26882 -10.26532 -10.25455
 Alpha  occ. eigenvalues --  -10.25269 -10.24185  -1.21725  -1.20699  -1.18325
 Alpha  occ. eigenvalues --   -1.15330  -1.14538  -1.12967  -1.12804  -1.09503
 Alpha  occ. eigenvalues --   -1.09365  -1.07709  -1.07228  -1.03173  -1.01244
 Alpha  occ. eigenvalues --   -1.00886  -0.96360  -0.92809  -0.92392  -0.91739
 Alpha  occ. eigenvalues --   -0.88992  -0.87901  -0.87166  -0.86328  -0.84990
 Alpha  occ. eigenvalues --   -0.82302  -0.81492  -0.81064  -0.79737  -0.79009
 Alpha  occ. eigenvalues --   -0.76818  -0.75437  -0.74524  -0.74039  -0.73843
 Alpha  occ. eigenvalues --   -0.72476  -0.71150  -0.70909  -0.69613  -0.68455
 Alpha  occ. eigenvalues --   -0.67839  -0.67375  -0.66759  -0.65401  -0.64472
 Alpha  occ. eigenvalues --   -0.64366  -0.63207  -0.63008  -0.62194  -0.61298
 Alpha  occ. eigenvalues --   -0.60919  -0.60370  -0.60042  -0.59134  -0.59025
 Alpha  occ. eigenvalues --   -0.58358  -0.58114  -0.57645  -0.57583  -0.56877
 Alpha  occ. eigenvalues --   -0.55951  -0.55710  -0.55232  -0.55079  -0.54894
 Alpha  occ. eigenvalues --   -0.54353  -0.53972  -0.53148  -0.52805  -0.52389
 Alpha  occ. eigenvalues --   -0.51819  -0.51597  -0.51487  -0.51320  -0.50898
 Alpha  occ. eigenvalues --   -0.50583  -0.50403  -0.50056  -0.49866  -0.49725
 Alpha  occ. eigenvalues --   -0.49583  -0.49426  -0.49125  -0.47876  -0.47480
 Alpha  occ. eigenvalues --   -0.46874  -0.46505  -0.46198  -0.46048  -0.45485
 Alpha  occ. eigenvalues --   -0.44546  -0.44399  -0.43969  -0.43479  -0.43092
 Alpha  occ. eigenvalues --   -0.42753  -0.42320  -0.42110  -0.41240  -0.40883
 Alpha  occ. eigenvalues --   -0.40684  -0.40253  -0.39892  -0.39295  -0.38676
 Alpha  occ. eigenvalues --   -0.38015  -0.37212  -0.36493  -0.36040  -0.35373
 Alpha  occ. eigenvalues --   -0.33464  -0.33248  -0.31236  -0.29775  -0.29443
 Alpha  occ. eigenvalues --   -0.29087  -0.26226
 Alpha virt. eigenvalues --   -0.13817  -0.12422  -0.10418  -0.10178  -0.09063
 Alpha virt. eigenvalues --   -0.07846  -0.07536  -0.06612  -0.06239  -0.05766
 Alpha virt. eigenvalues --   -0.03845  -0.03239  -0.02420  -0.02231  -0.01384

 Mulliken charges:
               1
     1  N   -0.758052
     2  H    0.418838
     3  H    0.437444
     4  H    0.417235
     5  C   -0.125992
     6  H    0.212882
     7  C    0.682188
     8  C   -0.302822
     9  H    0.207597
    10  H    0.218418
    11  O   -0.536191
    12  C   -0.363200
    13  H    0.167884
    14  H    0.194303
    15  C    0.580555
    16  O   -0.420830
    17  O   -0.560604
    18  N   -0.590252
    19  H    0.346509
    20  C   -0.044515
    21  H    0.194173
    22  C    0.666940
    23  C   -0.412573
    24  H    0.179952
    25  H    0.189296
    26  O   -0.576646
    27  C    0.037829
    28  C   -0.020415
    29  H    0.164569
    30  C    0.096682
    31  C    0.306570
    32  C   -0.212048
    33  H    0.125494
    34  N   -0.683639
    35  H    0.343010
    36  C   -0.148872
    37  H    0.149026
    38  C   -0.159906
    39  H    0.143647
    40  C   -0.138532
    41  H    0.144015
    42  N   -0.597969
    43  H    0.357721
    44  C   -0.085368
    45  H    0.179699
    46  C    0.641119
    47  C    0.107925
    48  H    0.156216
    49  O   -0.536588
    50  C   -0.449841
    51  H    0.149536
    52  H    0.182291
    53  H    0.148412
    54  O   -0.646407
    55  H    0.425134
    56  N   -0.615704
    57  H    0.367173
    58  C   -0.049971
    59  H    0.169801
    60  C    0.612512
    61  C   -0.260932
    62  H    0.183319
    63  H    0.139779
    64  O   -0.428794
    65  C   -0.282392
    66  H    0.187713
    67  H    0.121133
    68  C   -0.161542
    69  H    0.162978
    70  H    0.145255
    71  N   -0.585650
    72  H    0.321738
    73  N   -0.752269
    74  H    0.337214
    75  H    0.318636
    76  N   -0.641607
    77  H    0.271687
    78  C    0.582491
    79  O   -0.594097
    80  H    0.432326
    81  H    0.417353
 Sum of Mulliken charges =   1.00000

 Dipole moment (field-independent basis, Debye):
    X=            -15.2613    Y=             10.1487    Z=             14.0444  Tot=             23.0901
 Quadrupole moment (field-independent basis, Debye-Ang):
   XX=           -157.2518   YY=           -196.4651   ZZ=           -207.8253
   XY=            -50.1694   XZ=            -25.0486   YZ=             17.5212

 Normal termination of Gaussian 16 at Fri May 13 04:40:09 2022.
