 Gaussian 16, Revision C.01,
 Gaussian 16:  ES64L-G16RevC.01  3-Jul-2019

 ----------------------------------------------------------------------
 # B3LYP/6-31G* empiricaldispersion=gd3bj guess=read geom=check nosymm
 integral(ultrafinegrid)
 ----------------------------------------------------------------------

 ------------------------------------------------------
 Candidate Structure: Conf:234 Charge calc in gas phase
 ------------------------------------------------------
 Structure from the checkpoint file:  "conf-234.chk"
 Charge =  1 Multiplicity = 1

                          Input orientation:
 ---------------------------------------------------------------------
 Center     Atomic      Atomic             Coordinates (Angstroms)
 Number     Number       Type             X           Y           Z
 ---------------------------------------------------------------------
      1          7           0       -8.082778   -1.577054   -3.609149
      2          1           0       -8.434247   -2.546307   -3.737875
      3          1           0       -8.404848   -1.189254   -2.702120
      4          1           0       -8.460927   -0.986324   -4.355256
      5          6           0       -6.575038   -1.487201   -3.540174
      6          1           0       -6.176622   -1.594770   -4.550652
      7          6           0       -6.152001   -2.601390   -2.581859
      8          6           0       -6.248609   -0.099437   -2.909175
      9          1           0       -5.202755   -0.136919   -2.577299
     10          8           0       -6.676919   -2.633455   -1.468045
     11          6           0       -6.438004    1.056434   -3.879791
     12          1           0       -5.776965    0.952422   -4.745531
     13          1           0       -6.202257    1.994091   -3.371501
     14          1           0       -7.475112    1.130329   -4.229802
     15          8           0       -7.131227    0.095021   -1.811871
     16          1           0       -6.894871   -0.554835   -1.121258
     17          7           0       -5.220689   -3.461481   -3.029161
     18          1           0       -4.924782   -3.397343   -3.995489
     19          6           0       -4.926512   -4.712412   -2.325110
     20          1           0       -5.318629   -4.574258   -1.313965
     21          6           0       -3.413348   -4.973198   -2.206870
     22          6           0       -5.669404   -5.887242   -3.004940
     23          1           0       -5.169619   -6.133852   -3.948423
     24          1           0       -5.565834   -6.761337   -2.357387
     25          8           0       -3.000636   -6.097109   -1.951860
     26          6           0       -7.113166   -5.516335   -3.251030
     27          6           0       -7.527115   -5.074051   -4.514002
     28          1           0       -6.832563   -5.119975   -5.349723
     29          6           0       -8.035803   -5.478389   -2.196317
     30          1           0       -7.730834   -5.812117   -1.208561
     31          6           0       -8.826514   -4.596829   -4.721803
     32          1           0       -9.140663   -4.297229   -5.718660
     33          6           0       -9.329204   -4.997493   -2.390406
     34          1           0      -10.028025   -4.978977   -1.559828
     35          6           0       -9.731237   -4.548264   -3.653516
     36          1           0      -10.748737   -4.201873   -3.812618
     37          7           0       -2.653340   -3.875254   -2.390303
     38          1           0       -3.071630   -2.956529   -2.509259
     39          6           0       -1.219708   -3.805206   -2.180555
     40          1           0       -0.972310   -4.245763   -1.206246
     41          6           0       -0.910424   -2.294028   -2.157264
     42          6           0       -0.432326   -4.537437   -3.276598
     43          1           0        0.643969   -4.481780   -3.087657
     44          1           0       -0.637070   -4.090620   -4.254852
     45          1           0       -0.730067   -5.588338   -3.291877
     46          8           0       -1.771217   -1.468024   -2.492051
     47          7           0        0.330432   -1.962504   -1.779823
     48          1           0        1.006508   -2.651551   -1.459832
     49          6           0        0.800898   -0.589726   -1.683018
     50          1           0        0.518406   -0.051918   -2.594996
     51          6           0        2.328022   -0.692350   -1.549379
     52          6           0        0.179925    0.111657   -0.452181
     53          1           0        0.558940   -0.377319    0.452269
     54          1           0       -0.897965   -0.062467   -0.483819
     55          8           0        2.836484   -1.705617   -1.069312
     56          6           0        0.434433    1.617935   -0.386036
     57          1           0        1.489745    1.882799   -0.291429
     58          1           0        0.093274    2.109890   -1.309102
     59          6           0       -0.322781    2.256897    0.756377
     60          8           0       -1.265697    1.771544    1.342511
     61          8           0        0.174027    3.481794    1.055071
     62          7           0        3.023788    0.391218   -1.955700
     63          1           0        2.520411    1.243184   -2.189761
     64          6           0        4.380154    0.669372   -1.493936
     65          1           0        4.640019   -0.098830   -0.760850
     66          6           0        4.300540    2.055396   -0.827336
     67          6           0        5.394246    0.661485   -2.643422
     68          1           0        6.400425    0.878496   -2.270352
     69          1           0        5.131852    1.419746   -3.388296
     70          1           0        5.402166   -0.319692   -3.126296
     71          8           0        3.422131    2.855041   -1.176846
     72          7           0        5.208173    2.320435    0.119673
     73          1           0        5.921175    1.656603    0.410435
     74          6           0        5.190720    3.553073    0.894408
     75          1           0        5.021250    4.388484    0.210758
     76          6           0        6.570891    3.653186    1.553082
     77          6           0        4.062395    3.498481    1.953320
     78          1           0        3.155198    3.173026    1.431482
     79          1           0        4.324231    2.713369    2.674763
     80          8           0        7.258776    2.638608    1.720400
     81          6           0        3.739236    4.807485    2.694349
     82          1           0        4.633515    5.168762    3.216231
     83          6           0        3.269569    5.906361    1.731766
     84          1           0        2.405707    5.564232    1.147935
     85          1           0        4.051510    6.205365    1.025005
     86          1           0        2.981727    6.805742    2.286098
     87          6           0        2.664283    4.527497    3.753026
     88          1           0        1.746469    4.153343    3.281043
     89          1           0        2.414469    5.438048    4.308490
     90          1           0        2.999591    3.772867    4.474124
     91          7           0        6.929148    4.883873    1.945562
     92          1           0        6.293404    5.680415    1.896513
     93          6           0        8.053525    5.159969    2.824184
     94          1           0        8.149767    4.334731    3.540621
     95          6           0        7.677953    6.465202    3.591868
     96          6           0        9.361268    5.231118    1.999288
     97          1           0        9.361227    6.145022    1.390697
     98          1           0        9.322150    4.387043    1.304627
     99          8           0        8.424294    6.804709    4.575410
    100          6           0       10.653774    5.114989    2.822247
    101          1           0       11.441542    4.657418    2.211348
    102          1           0       10.475795    4.425039    3.655870
    103          6           0       11.169330    6.453007    3.377204
    104          1           0       10.340320    7.092119    3.681621
    105          1           0       11.749749    6.996479    2.627170
    106          7           0       12.047835    6.276780    4.545385
    107          1           0       13.004858    6.006786    4.358815
    108          7           0       10.275920    5.842314    5.987648
    109          1           0        9.984172    5.716341    6.948344
    110          1           0        9.463933    6.146226    5.272398
    111          7           0       12.489021    5.594434    6.712605
    112          1           0       13.402627    6.022853    6.647208
    113          1           0       12.155914    5.480557    7.659705
    114          6           0       11.568242    5.918112    5.752279
    115          8           0        6.687350    7.089429    3.188335
    116          1           0       -0.368406    3.833840    1.785882
 ---------------------------------------------------------------------

 SCF Done:  E(RB3LYP) =  -2782.52776900     A.U. after    1 cycles

 Alpha  occ. eigenvalues --  -19.28325 -19.25974 -19.24594 -19.19677 -19.19377
 Alpha  occ. eigenvalues --  -19.18974 -19.18002 -19.16522 -19.14811 -19.12610
 Alpha  occ. eigenvalues --  -19.11455 -14.59859 -14.50239 -14.45352 -14.44788
 Alpha  occ. eigenvalues --  -14.43559 -14.43170 -14.41891 -14.41660 -14.40454
 Alpha  occ. eigenvalues --  -14.37990 -10.43448 -10.40419 -10.40314 -10.38643
 Alpha  occ. eigenvalues --  -10.37173 -10.37142 -10.36507 -10.35028 -10.34099
 Alpha  occ. eigenvalues --  -10.33519 -10.31702 -10.31131 -10.30798 -10.30772
 Alpha  occ. eigenvalues --  -10.30534 -10.30499 -10.30378 -10.30150 -10.30050
 Alpha  occ. eigenvalues --  -10.29982 -10.29722 -10.29460 -10.28642 -10.27729
 Alpha  occ. eigenvalues --  -10.26719 -10.25233 -10.25207 -10.25058 -10.24964
 Alpha  occ. eigenvalues --  -10.23583 -10.23375 -10.22365 -10.21721 -10.21578
 Alpha  occ. eigenvalues --  -10.20298 -10.19728  -1.19130  -1.16060  -1.15399
 Alpha  occ. eigenvalues --   -1.13460  -1.11967  -1.11108  -1.09964  -1.09172
 Alpha  occ. eigenvalues --   -1.08454  -1.06732  -1.06611  -1.06439  -1.05348
 Alpha  occ. eigenvalues --   -1.00505  -0.99835  -0.98877  -0.98471  -0.97624
 Alpha  occ. eigenvalues --   -0.96945  -0.96938  -0.96076  -0.94663  -0.92774
 Alpha  occ. eigenvalues --   -0.89938  -0.87160  -0.86397  -0.85642  -0.84785
 Alpha  occ. eigenvalues --   -0.84615  -0.83843  -0.83033  -0.82530  -0.79392
 Alpha  occ. eigenvalues --   -0.78732  -0.77015  -0.76931  -0.74642  -0.73754
 Alpha  occ. eigenvalues --   -0.73132  -0.73116  -0.72596  -0.72233  -0.71800
 Alpha  occ. eigenvalues --   -0.71434  -0.70919  -0.70506  -0.69766  -0.69442
 Alpha  occ. eigenvalues --   -0.68617  -0.67391  -0.66343  -0.66272  -0.65229
 Alpha  occ. eigenvalues --   -0.65131  -0.64868  -0.64016  -0.63732  -0.62986
 Alpha  occ. eigenvalues --   -0.62776  -0.62476  -0.62198  -0.61619  -0.60846
 Alpha  occ. eigenvalues --   -0.60076  -0.59557  -0.59024  -0.58465  -0.58293
 Alpha  occ. eigenvalues --   -0.57339  -0.56922  -0.56582  -0.56287  -0.55945
 Alpha  occ. eigenvalues --   -0.55621  -0.55091  -0.54902  -0.54368  -0.53959
 Alpha  occ. eigenvalues --   -0.53190  -0.52980  -0.52961  -0.52778  -0.52494
 Alpha  occ. eigenvalues --   -0.52341  -0.52155  -0.51625  -0.51601  -0.51489
 Alpha  occ. eigenvalues --   -0.51198  -0.50953  -0.50564  -0.50524  -0.50215
 Alpha  occ. eigenvalues --   -0.49886  -0.49542  -0.49106  -0.49042  -0.48457
 Alpha  occ. eigenvalues --   -0.48291  -0.48181  -0.47947  -0.47378  -0.47094
 Alpha  occ. eigenvalues --   -0.47038  -0.46876  -0.46649  -0.46194  -0.46081
 Alpha  occ. eigenvalues --   -0.45809  -0.45418  -0.45207  -0.44914  -0.44706
 Alpha  occ. eigenvalues --   -0.44507  -0.44190  -0.44107  -0.43915  -0.43542
 Alpha  occ. eigenvalues --   -0.43474  -0.43077  -0.42476  -0.42142  -0.42130
 Alpha  occ. eigenvalues --   -0.41745  -0.41567  -0.41520  -0.41084  -0.40799
 Alpha  occ. eigenvalues --   -0.40593  -0.40302  -0.40223  -0.40127  -0.39790
 Alpha  occ. eigenvalues --   -0.39355  -0.38834  -0.38283  -0.36977  -0.36911
 Alpha  occ. eigenvalues --   -0.36358  -0.36142  -0.36027  -0.35504  -0.35435
 Alpha  occ. eigenvalues --   -0.35166  -0.34120  -0.33892  -0.33148  -0.33077
 Alpha  occ. eigenvalues --   -0.32767  -0.32503  -0.32115  -0.31647  -0.30576
 Alpha  occ. eigenvalues --   -0.29802  -0.29101  -0.28724  -0.27569  -0.26814
 Alpha  occ. eigenvalues --   -0.25715
 Alpha virt. eigenvalues --   -0.13545  -0.11949  -0.11605  -0.09425  -0.06378
 Alpha virt. eigenvalues --   -0.05573  -0.05230  -0.05049  -0.04234  -0.03996
 Alpha virt. eigenvalues --   -0.03780  -0.02561  -0.02456  -0.02075  -0.01424

 Mulliken charges:
               1
     1  N   -0.747930
     2  H    0.424183
     3  H    0.422054
     4  H    0.407932
     5  C   -0.142976
     6  H    0.195369
     7  C    0.651894
     8  C    0.104061
     9  H    0.204570
    10  O   -0.529815
    11  C   -0.462005
    12  H    0.175294
    13  H    0.216475
    14  H    0.142731
    15  O   -0.621564
    16  H    0.438398
    17  N   -0.616020
    18  H    0.347976
    19  C   -0.078209
    20  H    0.225815
    21  C    0.631679
    22  C   -0.364902
    23  H    0.166911
    24  H    0.211448
    25  O   -0.519030
    26  C    0.169271
    27  C   -0.200828
    28  H    0.143342
    29  C   -0.155032
    30  H    0.163736
    31  C   -0.193308
    32  H    0.156905
    33  C   -0.120950
    34  H    0.167739
    35  C   -0.178668
    36  H    0.161806
    37  N   -0.638724
    38  H    0.352446
    39  C   -0.029455
    40  H    0.186138
    41  C    0.627882
    42  C   -0.451719
    43  H    0.165903
    44  H    0.151911
    45  H    0.196350
    46  O   -0.571612
    47  N   -0.624258
    48  H    0.363547
    49  C   -0.040515
    50  H    0.166454
    51  C    0.602329
    52  C   -0.261950
    53  H    0.164664
    54  H    0.186080
    55  O   -0.534497
    56  C   -0.399956
    57  H    0.217884
    58  H    0.177119
    59  C    0.584761
    60  O   -0.464941
    61  O   -0.557891
    62  N   -0.594219
    63  H    0.353701
    64  C   -0.070940
    65  H    0.186151
    66  C    0.629944
    67  C   -0.440142
    68  H    0.162641
    69  H    0.163350
    70  H    0.171251
    71  O   -0.555940
    72  N   -0.613888
    73  H    0.354542
    74  C   -0.050552
    75  H    0.178191
    76  C    0.613954
    77  C   -0.266256
    78  H    0.163167
    79  H    0.136899
    80  O   -0.566513
    81  C   -0.091453
    82  H    0.154024
    83  C   -0.453101
    84  H    0.149108
    85  H    0.143026
    86  H    0.152373
    87  C   -0.447344
    88  H    0.123031
    89  H    0.148739
    90  H    0.140520
    91  N   -0.619543
    92  H    0.371111
    93  C   -0.062347
    94  H    0.153705
    95  C    0.608733
    96  C   -0.265659
    97  H    0.144664
    98  H    0.169457
    99  O   -0.634551
   100  C   -0.277223
   101  H    0.140446
   102  H    0.154068
   103  C   -0.195506
   104  H    0.229186
   105  H    0.165070
   106  N   -0.586681
   107  H    0.342701
   108  N   -0.776530
   109  H    0.339773
   110  H    0.463948
   111  N   -0.761211
   112  H    0.357147
   113  H    0.356676
   114  C    0.769182
   115  O   -0.542217
   116  H    0.415039
 Sum of Mulliken charges =   1.00000

 Dipole moment (field-independent basis, Debye):
    X=            -10.1067    Y=             -2.7916    Z=             -8.8863  Tot=             13.7443
 Quadrupole moment (field-independent basis, Debye-Ang):
   XX=            193.5892   YY=           -317.2536   ZZ=           -183.0093
   XY=            164.6208   XZ=            251.6080   YZ=             76.4421

 Normal termination of Gaussian 16 at Sat Jul 16 15:20:50 2022.
