 Gaussian 16, Revision C.01,
 Gaussian 16:  ES64L-G16RevC.01  3-Jul-2019

 ----------------------------------------------------------------------
 # B3LYP/6-31G* empiricaldispersion=gd3bj guess=read geom=check nosymm
 integral(ultrafinegrid)
 ----------------------------------------------------------------------

 ------------------------------------------------------
 Candidate Structure: Conf:651 Charge calc in gas phase
 ------------------------------------------------------
 Structure from the checkpoint file:  "conf-651.chk"
 Charge =  1 Multiplicity = 1

                          Input orientation:
 ---------------------------------------------------------------------
 Center     Atomic      Atomic             Coordinates (Angstroms)
 Number     Number       Type             X           Y           Z
 ---------------------------------------------------------------------
      1          7           0       -5.880347   -4.191479   -4.713892
      2          1           0       -6.034059   -3.334824   -4.129509
      3          1           0       -5.317543   -3.883736   -5.528445
      4          1           0       -6.751223   -4.634823   -5.010752
      5          6           0       -4.967021   -5.059016   -3.889662
      6          1           0       -5.541937   -5.864249   -3.426330
      7          6           0       -4.375803   -4.063046   -2.865816
      8          6           0       -3.845697   -5.564753   -4.840980
      9          1           0       -3.069220   -6.033909   -4.226705
     10          8           0       -4.780773   -2.890796   -2.894039
     11          6           0       -4.342734   -6.561940   -5.876987
     12          1           0       -4.765277   -7.449855   -5.396228
     13          1           0       -3.507502   -6.869988   -6.509986
     14          1           0       -5.102442   -6.121722   -6.533378
     15          8           0       -3.342893   -4.423221   -5.519651
     16          1           0       -2.743180   -3.913605   -4.926308
     17          7           0       -3.350195   -4.499353   -2.142841
     18          1           0       -3.172620   -5.494447   -2.065124
     19          6           0       -2.448824   -3.604531   -1.401562
     20          1           0       -3.044971   -2.783205   -0.991592
     21          6           0       -1.407796   -3.012717   -2.379514
     22          6           0       -1.775660   -4.362682   -0.247498
     23          1           0       -0.971634   -4.989981   -0.645545
     24          1           0       -1.300117   -3.614660    0.390503
     25          8           0       -0.214504   -3.036122   -2.140224
     26          6           0       -2.771949   -5.194366    0.524377
     27          6           0       -3.723101   -4.585816    1.354762
     28          1           0       -3.703543   -3.507631    1.484604
     29          6           0       -2.798780   -6.585710    0.366593
     30          1           0       -2.040031   -7.070199   -0.246367
     31          6           0       -4.679453   -5.359601    2.009924
     32          1           0       -5.406498   -4.879947    2.659087
     33          6           0       -3.758456   -7.361019    1.022576
     34          1           0       -3.756234   -8.440828    0.903861
     35          6           0       -4.703135   -6.747234    1.843822
     36          1           0       -5.445979   -7.345916    2.362556
     37          7           0       -1.931857   -2.486106   -3.560592
     38          1           0       -2.877324   -2.115736   -3.456210
     39          6           0       -1.064873   -1.591533   -4.369995
     40          1           0       -0.070195   -2.039304   -4.367936
     41          6           0       -1.071630   -0.236827   -3.637367
     42          6           0       -1.607000   -1.460103   -5.785853
     43          1           0       -0.948229   -0.817234   -6.376832
     44          1           0       -2.595006   -0.990877   -5.771205
     45          1           0       -1.664689   -2.434906   -6.279943
     46          8           0       -2.030638    0.526118   -3.751881
     47          7           0       -0.030645   -0.043896   -2.803771
     48          1           0        0.700310   -0.743494   -2.715185
     49          6           0        0.034014    1.007959   -1.806793
     50          1           0       -0.419242    1.916347   -2.214373
     51          6           0        1.515211    1.202576   -1.463148
     52          6           0       -0.659584    0.574886   -0.491878
     53          1           0       -0.354673    1.229555    0.329868
     54          1           0       -0.270466   -0.419682   -0.250338
     55          8           0        2.310749    0.279528   -1.609215
     56          6           0       -2.197351    0.521342   -0.575624
     57          1           0       -2.608090    1.533760   -0.629278
     58          1           0       -2.531366   -0.026965   -1.455318
     59          6           0       -2.719156   -0.187297    0.646087
     60          8           0       -3.011799   -1.371441    0.692676
     61          8           0       -2.770170    0.609176    1.725297
     62          7           0        1.849155    2.401603   -0.908067
     63          1           0        1.072411    2.986987   -0.622582
     64          6           0        2.993929    2.445541    0.005175
     65          1           0        3.845533    2.011359   -0.523015
     66          6           0        2.631253    1.587883    1.234707
     67          6           0        3.286103    3.886374    0.418203
     68          1           0        4.161456    3.921980    1.073460
     69          1           0        2.436006    4.302898    0.969815
     70          1           0        3.481396    4.506687   -0.461313
     71          8           0        1.500911    1.662652    1.723753
     72          7           0        3.600365    0.776501    1.693221
     73          1           0        4.539235    0.808676    1.311889
     74          6           0        3.429554   -0.122801    2.818818
     75          1           0        2.603841    0.256247    3.425912
     76          6           0        4.741613   -0.113193    3.609817
     77          6           0        3.148320   -1.573181    2.356963
     78          1           0        4.026852   -1.906996    1.789772
     79          1           0        3.088564   -2.214922    3.246850
     80          8           0        5.804067    0.195266    3.065584
     81          6           0        1.888479   -1.767351    1.497484
     82          1           0        1.945140   -1.064322    0.657402
     83          6           0        1.877857   -3.183891    0.907582
     84          1           0        1.756787   -3.939485    1.694794
     85          1           0        2.812276   -3.399050    0.376832
     86          1           0        1.060273   -3.299613    0.188727
     87          6           0        0.603441   -1.492004    2.290056
     88          1           0        0.564744   -2.114286    3.193768
     89          1           0       -0.284075   -1.734448    1.691860
     90          1           0        0.530243   -0.440065    2.580092
     91          7           0        4.635150   -0.509444    4.896112
     92          1           0        3.760596   -0.903865    5.231718
     93          6           0        5.785065   -0.914052    5.686505
     94          1           0        6.589996   -1.192109    5.001875
     95          6           0        5.385104   -2.161981    6.478894
     96          6           0        6.277458    0.198372    6.636639
     97          1           0        6.902479   -0.245029    7.417999
     98          1           0        5.401865    0.628965    7.135484
     99          8           0        6.392682   -2.794870    7.064145
    100          6           0        7.070666    1.290071    5.915219
    101          1           0        7.257227    2.118879    6.611409
    102          1           0        6.486707    1.695103    5.082107
    103          6           0        8.408939    0.795168    5.353839
    104          1           0        8.881638    1.602631    4.782410
    105          1           0        8.259503   -0.035510    4.662804
    106          7           0        9.360415    0.357383    6.369105
    107          1           0        9.776976    1.068186    6.953745
    108          7           0        8.868879   -1.927806    6.350695
    109          1           0        9.344356   -2.815014    6.514145
    110          1           0        7.276060   -2.383098    6.792177
    111          7           0       10.777650   -1.057610    7.484393
    112          1           0       11.570846   -0.487347    7.217611
    113          1           0       11.030811   -1.999413    7.750468
    114          6           0        9.633116   -0.935573    6.706499
    115          8           0        4.225970   -2.518350    6.576181
    116          1           0       -3.039682    0.056869    2.483859
 ---------------------------------------------------------------------

 SCF Done:  E(RB3LYP) =  -2782.54472427     A.U. after    2 cycles

 Alpha  occ. eigenvalues --  -19.29231 -19.27641 -19.27391 -19.23446 -19.22181
 Alpha  occ. eigenvalues --  -19.20535 -19.19292 -19.18920 -19.17121 -19.16949
 Alpha  occ. eigenvalues --  -19.16462 -14.59937 -14.50756 -14.46659 -14.43344
 Alpha  occ. eigenvalues --  -14.42801 -14.41589 -14.41119 -14.41067 -14.40658
 Alpha  occ. eigenvalues --  -14.35384 -10.44359 -10.41008 -10.40066 -10.39859
 Alpha  occ. eigenvalues --  -10.39848 -10.36263 -10.35970 -10.35269 -10.34702
 Alpha  occ. eigenvalues --  -10.34248 -10.34106 -10.33848 -10.32107 -10.31397
 Alpha  occ. eigenvalues --  -10.30932 -10.29645 -10.28387 -10.27988 -10.27695
 Alpha  occ. eigenvalues --  -10.27400 -10.27034 -10.26971 -10.26780 -10.26709
 Alpha  occ. eigenvalues --  -10.26641 -10.26533 -10.26498 -10.26428 -10.26063
 Alpha  occ. eigenvalues --  -10.24688 -10.23586 -10.23345 -10.23323 -10.22998
 Alpha  occ. eigenvalues --  -10.21739 -10.21619  -1.20441  -1.18500  -1.17035
 Alpha  occ. eigenvalues --   -1.15153  -1.13693  -1.12200  -1.11590  -1.10739
 Alpha  occ. eigenvalues --   -1.09314  -1.09259  -1.08434  -1.07448  -1.04334
 Alpha  occ. eigenvalues --   -1.04040  -1.02480  -1.00114  -0.99503  -0.98154
 Alpha  occ. eigenvalues --   -0.97488  -0.94883  -0.93944  -0.92979  -0.90523
 Alpha  occ. eigenvalues --   -0.89321  -0.88042  -0.86165  -0.86044  -0.85743
 Alpha  occ. eigenvalues --   -0.84383  -0.83959  -0.82196  -0.81933  -0.80937
 Alpha  occ. eigenvalues --   -0.80086  -0.77765  -0.75731  -0.75538  -0.75048
 Alpha  occ. eigenvalues --   -0.74239  -0.73509  -0.72803  -0.72588  -0.72550
 Alpha  occ. eigenvalues --   -0.72199  -0.71076  -0.69221  -0.68555  -0.68017
 Alpha  occ. eigenvalues --   -0.67793  -0.67264  -0.66665  -0.66444  -0.66289
 Alpha  occ. eigenvalues --   -0.65365  -0.64573  -0.64262  -0.63861  -0.63479
 Alpha  occ. eigenvalues --   -0.63184  -0.62657  -0.62579  -0.61650  -0.60589
 Alpha  occ. eigenvalues --   -0.60294  -0.59878  -0.59766  -0.59621  -0.58504
 Alpha  occ. eigenvalues --   -0.58148  -0.57816  -0.57577  -0.57122  -0.56354
 Alpha  occ. eigenvalues --   -0.55951  -0.55675  -0.54790  -0.54019  -0.53735
 Alpha  occ. eigenvalues --   -0.53555  -0.53441  -0.53286  -0.53169  -0.52793
 Alpha  occ. eigenvalues --   -0.52696  -0.52595  -0.52359  -0.52014  -0.51909
 Alpha  occ. eigenvalues --   -0.51786  -0.51544  -0.51071  -0.50520  -0.50400
 Alpha  occ. eigenvalues --   -0.49827  -0.49764  -0.49451  -0.49271  -0.48998
 Alpha  occ. eigenvalues --   -0.48921  -0.48470  -0.48371  -0.47978  -0.47829
 Alpha  occ. eigenvalues --   -0.47778  -0.47474  -0.47050  -0.46978  -0.46644
 Alpha  occ. eigenvalues --   -0.46402  -0.46020  -0.45912  -0.45553  -0.45326
 Alpha  occ. eigenvalues --   -0.44937  -0.44728  -0.44543  -0.44408  -0.43944
 Alpha  occ. eigenvalues --   -0.43484  -0.43379  -0.43179  -0.43151  -0.43009
 Alpha  occ. eigenvalues --   -0.42915  -0.42601  -0.42170  -0.41960  -0.41909
 Alpha  occ. eigenvalues --   -0.41812  -0.41713  -0.41385  -0.41244  -0.41026
 Alpha  occ. eigenvalues --   -0.40387  -0.39910  -0.39585  -0.39091  -0.38500
 Alpha  occ. eigenvalues --   -0.38441  -0.37378  -0.37034  -0.36927  -0.36077
 Alpha  occ. eigenvalues --   -0.35271  -0.34260  -0.33965  -0.33465  -0.33262
 Alpha  occ. eigenvalues --   -0.32834  -0.32361  -0.32186  -0.32104  -0.31856
 Alpha  occ. eigenvalues --   -0.31684  -0.31046  -0.30615  -0.30052  -0.29813
 Alpha  occ. eigenvalues --   -0.28757
 Alpha virt. eigenvalues --   -0.14149  -0.10374  -0.09708  -0.08543  -0.08090
 Alpha virt. eigenvalues --   -0.07711  -0.05594  -0.05400  -0.04841  -0.04534
 Alpha virt. eigenvalues --   -0.03372  -0.02859  -0.02629  -0.02044  -0.01719

 Mulliken charges:
               1
     1  N   -0.749543
     2  H    0.434045
     3  H    0.423848
     4  H    0.414094
     5  C   -0.119103
     6  H    0.223973
     7  C    0.631973
     8  C    0.085366
     9  H    0.172720
    10  O   -0.540673
    11  C   -0.455818
    12  H    0.174012
    13  H    0.213273
    14  H    0.150273
    15  O   -0.649410
    16  H    0.451824
    17  N   -0.582718
    18  H    0.356508
    19  C   -0.097189
    20  H    0.254560
    21  C    0.620580
    22  C   -0.408684
    23  H    0.172377
    24  H    0.216723
    25  O   -0.466291
    26  C    0.150976
    27  C   -0.186555
    28  H    0.174372
    29  C   -0.221591
    30  H    0.127242
    31  C   -0.134436
    32  H    0.146641
    33  C   -0.131642
    34  H    0.143342
    35  C   -0.130014
    36  H    0.147085
    37  N   -0.679974
    38  H    0.371545
    39  C   -0.051208
    40  H    0.184915
    41  C    0.619253
    42  C   -0.475808
    43  H    0.184629
    44  H    0.171903
    45  H    0.155253
    46  O   -0.544830
    47  N   -0.592225
    48  H    0.369719
    49  C   -0.072244
    50  H    0.181995
    51  C    0.626973
    52  C   -0.315752
    53  H    0.214340
    54  H    0.177071
    55  O   -0.523512
    56  C   -0.334597
    57  H    0.182162
    58  H    0.180120
    59  C    0.577617
    60  O   -0.477821
    61  O   -0.535010
    62  N   -0.574600
    63  H    0.336451
    64  C   -0.062204
    65  H    0.179444
    66  C    0.632459
    67  C   -0.470064
    68  H    0.172595
    69  H    0.168078
    70  H    0.173975
    71  O   -0.552640
    72  N   -0.586737
    73  H    0.351352
    74  C   -0.079938
    75  H    0.182495
    76  C    0.621792
    77  C   -0.259273
    78  H    0.147064
    79  H    0.149690
    80  O   -0.551941
    81  C   -0.083715
    82  H    0.154815
    83  C   -0.466587
    84  H    0.137655
    85  H    0.145697
    86  H    0.156610
    87  C   -0.490320
    88  H    0.138443
    89  H    0.131864
    90  H    0.181286
    91  N   -0.600618
    92  H    0.352248
    93  C   -0.095906
    94  H    0.199441
    95  C    0.604614
    96  C   -0.261853
    97  H    0.157114
    98  H    0.151620
    99  O   -0.612475
   100  C   -0.265559
   101  H    0.130397
   102  H    0.165792
   103  C   -0.143895
   104  H    0.151624
   105  H    0.199971
   106  N   -0.591385
   107  H    0.330802
   108  N   -0.736080
   109  H    0.293615
   110  H    0.472022
   111  N   -0.757497
   112  H    0.335824
   113  H    0.337363
   114  C    0.660740
   115  O   -0.487959
   116  H    0.419643
 Sum of Mulliken charges =   1.00000

 Dipole moment (field-independent basis, Debye):
    X=             -9.8708    Y=            -16.1807    Z=            -11.1571  Tot=             21.9938
 Quadrupole moment (field-independent basis, Debye-Ang):
   XX=            -76.4151   YY=           -213.1181   ZZ=           -230.7650
   XY=            122.8373   XZ=            158.1114   YZ=            101.0314

 Normal termination of Gaussian 16 at Sat Jul 16 15:21:42 2022.
