 Gaussian 16, Revision C.01,
 Gaussian 16:  ES64L-G16RevC.01  3-Jul-2019

 ----------------------------------------------------------------------
 # B3LYP/6-31G* empiricaldispersion=gd3bj guess=read geom=check nosymm
 integral(ultrafinegrid)
 ----------------------------------------------------------------------

 ------------------------------------------------------
 Candidate Structure: Conf:796 Charge calc in gas phase
 ------------------------------------------------------
 Structure from the checkpoint file:  "conf-796.chk"
 Charge =  1 Multiplicity = 1

                          Input orientation:
 ---------------------------------------------------------------------
 Center     Atomic      Atomic             Coordinates (Angstroms)
 Number     Number       Type             X           Y           Z
 ---------------------------------------------------------------------
      1          7           0       -8.422773   -5.025937   -6.386343
      2          1           0       -7.856109   -5.795353   -5.987378
      3          1           0       -8.934692   -4.596076   -5.590302
      4          1           0       -9.052833   -5.347820   -7.133433
      5          6           0       -7.551618   -3.924228   -6.920004
      6          1           0       -6.710645   -4.386460   -7.440288
      7          6           0       -7.136311   -3.166165   -5.647977
      8          6           0       -8.392612   -3.084558   -7.890610
      9          1           0       -9.152287   -2.546065   -7.304036
     10          8           0       -7.960031   -3.125561   -4.729515
     11          6           0       -7.530361   -2.097675   -8.666298
     12          1           0       -7.028513   -1.397930   -7.989938
     13          1           0       -8.150708   -1.508116   -9.348634
     14          1           0       -6.777594   -2.628085   -9.258425
     15          8           0       -9.016066   -4.060386   -8.729708
     16          1           0       -9.621550   -3.617040   -9.344590
     17          7           0       -5.901938   -2.664841   -5.613643
     18          1           0       -5.281802   -2.667191   -6.419342
     19          6           0       -5.250918   -2.285607   -4.369038
     20          1           0       -6.006622   -1.893903   -3.686880
     21          6           0       -4.191997   -1.241067   -4.740952
     22          6           0       -4.536913   -3.521676   -3.732046
     23          1           0       -3.605497   -3.689372   -4.284626
     24          1           0       -4.281424   -3.248321   -2.704469
     25          8           0       -3.692234   -1.259955   -5.868142
     26          6           0       -5.382035   -4.771295   -3.778770
     27          6           0       -6.367576   -5.014274   -2.812621
     28          1           0       -6.486139   -4.314511   -1.990178
     29          6           0       -5.244570   -5.679911   -4.835889
     30          1           0       -4.467064   -5.518657   -5.578825
     31          6           0       -7.201305   -6.127206   -2.904484
     32          1           0       -7.955401   -6.300392   -2.142778
     33          6           0       -6.071617   -6.806341   -4.932177
     34          1           0       -5.913439   -7.528058   -5.730271
     35          6           0       -7.058939   -7.029295   -3.964672
     36          1           0       -7.686455   -7.914814   -4.016936
     37          7           0       -3.844265   -0.410071   -3.748282
     38          1           0       -4.294321   -0.487501   -2.839636
     39          6           0       -2.721162    0.531408   -3.831231
     40          1           0       -1.969674    0.087839   -4.490752
     41          6           0       -2.235746    0.606620   -2.380802
     42          6           0       -3.156958    1.897258   -4.362056
     43          1           0       -2.297201    2.572092   -4.432423
     44          1           0       -3.894461    2.339587   -3.687203
     45          1           0       -3.593771    1.783893   -5.357877
     46          8           0       -3.030615    0.944134   -1.502381
     47          7           0       -0.989345    0.157477   -2.123451
     48          1           0       -0.285909    0.051308   -2.847228
     49          6           0       -0.512644    0.010110   -0.761473
     50          1           0       -1.115242    0.666477   -0.130293
     51          6           0        0.965900    0.416171   -0.747288
     52          6           0       -0.637860   -1.453992   -0.254318
     53          1           0       -0.565948   -1.450408    0.837285
     54          1           0        0.215943   -2.029464   -0.631155
     55          8           0        1.630850    0.393010   -1.785172
     56          6           0       -1.906965   -2.190941   -0.702969
     57          1           0       -1.932594   -2.292067   -1.790585
     58          1           0       -1.877747   -3.210889   -0.295736
     59          6           0       -3.241228   -1.607769   -0.292753
     60          8           0       -4.271301   -1.739366   -0.934840
     61          8           0       -3.196872   -0.977210    0.888065
     62          7           0        1.455625    0.729657    0.463865
     63          1           0        0.897644    0.653213    1.312226
     64          6           0        2.865145    0.959504    0.723020
     65          1           0        3.449648    0.203208    0.184171
     66          6           0        3.039243    0.757163    2.240914
     67          6           0        3.312266    2.355501    0.265213
     68          1           0        4.381896    2.505147    0.445437
     69          1           0        2.757902    3.128560    0.806354
     70          1           0        3.121447    2.461040   -0.805470
     71          8           0        2.058856    0.580024    2.967870
     72          7           0        4.304130    0.809528    2.691873
     73          1           0        5.093956    0.917456    2.066888
     74          6           0        4.652662    0.610052    4.093695
     75          1           0        3.878548    1.081218    4.701783
     76          6           0        6.000941    1.292383    4.312704
     77          6           0        4.739722   -0.897740    4.427236
     78          1           0        3.813093   -1.353808    4.056160
     79          1           0        5.566020   -1.318012    3.838154
     80          8           0        6.820861    1.282616    3.351594
     81          6           0        4.916087   -1.250340    5.914305
     82          1           0        5.790936   -0.728700    6.317732
     83          6           0        3.710196   -0.817091    6.756336
     84          1           0        2.789943   -1.301796    6.403972
     85          1           0        3.554481    0.265947    6.734190
     86          1           0        3.868472   -1.084246    7.805003
     87          6           0        5.157006   -2.758561    6.053263
     88          1           0        4.297678   -3.331965    5.680193
     89          1           0        5.310833   -3.029982    7.102879
     90          1           0        6.042579   -3.077281    5.489926
     91          7           0        6.201942    1.827990    5.503389
     92          1           0        5.571213    1.560577    6.296120
     93          6           0        7.477612    2.123238    6.156480
     94          1           0        8.279027    1.551012    5.675696
     95          6           0        7.298669    1.563315    7.646981
     96          6           0        7.854689    3.611506    6.228861
     97          1           0        8.406486    3.726284    7.166525
     98          1           0        6.942873    4.217539    6.307635
     99          8           0        6.138624    1.119531    7.885909
    100          6           0        8.754224    4.115031    5.095177
    101          1           0        9.600069    3.421617    5.005471
    102          1           0        9.179733    5.093846    5.351218
    103          6           0        8.051763    4.214837    3.736031
    104          1           0        7.479182    5.140756    3.644442
    105          1           0        7.355563    3.391094    3.579877
    106          7           0        9.016135    4.206541    2.615202
    107          1           0        9.325817    5.092686    2.241527
    108          7           0        9.325898    1.908896    2.628783
    109          1           0        9.932946    1.120692    2.457123
    110          1           0        8.381091    1.705652    3.036868
    111          7           0       10.811319    3.283894    1.477089
    112          1           0       11.340711    4.142168    1.530991
    113          1           0       11.322536    2.471276    1.165162
    114          6           0        9.712893    3.123069    2.260284
    115          8           0        8.306315    1.660570    8.354834
    116          1           0       -4.080438   -0.592852    1.043910
 ---------------------------------------------------------------------

 SCF Done:  E(RB3LYP) =  -2782.51507407     A.U. after    2 cycles

 Alpha  occ. eigenvalues --  -19.29095 -19.27165 -19.24900 -19.21667 -19.20609
 Alpha  occ. eigenvalues --  -19.18959 -19.17977 -19.17819 -19.17148 -19.07729
 Alpha  occ. eigenvalues --  -19.06388 -14.57769 -14.48399 -14.47972 -14.47309
 Alpha  occ. eigenvalues --  -14.45604 -14.44604 -14.43515 -14.41800 -14.41100
 Alpha  occ. eigenvalues --  -14.38631 -10.43385 -10.42220 -10.40088 -10.39057
 Alpha  occ. eigenvalues --  -10.38569 -10.37772 -10.36257 -10.35083 -10.34211
 Alpha  occ. eigenvalues --  -10.33695 -10.33440 -10.31208 -10.30161 -10.30102
 Alpha  occ. eigenvalues --  -10.29976 -10.29967 -10.29754 -10.29631 -10.29558
 Alpha  occ. eigenvalues --  -10.29385 -10.29228 -10.28968 -10.28796 -10.27828
 Alpha  occ. eigenvalues --  -10.27335 -10.26997 -10.25406 -10.24897 -10.24019
 Alpha  occ. eigenvalues --  -10.23988 -10.23248 -10.21711 -10.21185 -10.20353
 Alpha  occ. eigenvalues --  -10.19195 -10.18318  -1.18237  -1.18037  -1.16366
 Alpha  occ. eigenvalues --   -1.12740  -1.12013  -1.11843  -1.11307  -1.09995
 Alpha  occ. eigenvalues --   -1.09083  -1.08994  -1.08163  -1.05132  -1.01375
 Alpha  occ. eigenvalues --   -1.01153  -1.00832  -0.99979  -0.99738  -0.98660
 Alpha  occ. eigenvalues --   -0.97645  -0.96105  -0.95668  -0.92523  -0.92017
 Alpha  occ. eigenvalues --   -0.89273  -0.87873  -0.85809  -0.85163  -0.84857
 Alpha  occ. eigenvalues --   -0.84538  -0.84341  -0.82945  -0.82336  -0.80027
 Alpha  occ. eigenvalues --   -0.79078  -0.77528  -0.77322  -0.75505  -0.74336
 Alpha  occ. eigenvalues --   -0.73712  -0.72752  -0.72584  -0.71504  -0.71170
 Alpha  occ. eigenvalues --   -0.70989  -0.70294  -0.69907  -0.69670  -0.69371
 Alpha  occ. eigenvalues --   -0.68712  -0.68548  -0.68119  -0.66648  -0.66278
 Alpha  occ. eigenvalues --   -0.65875  -0.65739  -0.64756  -0.64297  -0.63700
 Alpha  occ. eigenvalues --   -0.63094  -0.62630  -0.61776  -0.61436  -0.60731
 Alpha  occ. eigenvalues --   -0.60485  -0.59418  -0.59209  -0.58549  -0.58327
 Alpha  occ. eigenvalues --   -0.58171  -0.56876  -0.56798  -0.56661  -0.56206
 Alpha  occ. eigenvalues --   -0.55765  -0.55646  -0.55376  -0.55206  -0.54697
 Alpha  occ. eigenvalues --   -0.54531  -0.53867  -0.53771  -0.53228  -0.52811
 Alpha  occ. eigenvalues --   -0.52429  -0.52282  -0.52223  -0.51899  -0.51734
 Alpha  occ. eigenvalues --   -0.51294  -0.51152  -0.51030  -0.50589  -0.50356
 Alpha  occ. eigenvalues --   -0.50071  -0.49823  -0.49485  -0.49163  -0.48929
 Alpha  occ. eigenvalues --   -0.48491  -0.48292  -0.47723  -0.47434  -0.47293
 Alpha  occ. eigenvalues --   -0.47163  -0.47042  -0.46764  -0.46383  -0.46312
 Alpha  occ. eigenvalues --   -0.46227  -0.45866  -0.45436  -0.45096  -0.44968
 Alpha  occ. eigenvalues --   -0.44645  -0.44543  -0.44076  -0.43889  -0.43737
 Alpha  occ. eigenvalues --   -0.43422  -0.43154  -0.42966  -0.42882  -0.42287
 Alpha  occ. eigenvalues --   -0.42158  -0.41521  -0.41513  -0.40684  -0.40023
 Alpha  occ. eigenvalues --   -0.39811  -0.39657  -0.39538  -0.39304  -0.38956
 Alpha  occ. eigenvalues --   -0.38415  -0.38275  -0.38265  -0.37564  -0.36748
 Alpha  occ. eigenvalues --   -0.35583  -0.35559  -0.35487  -0.35175  -0.35077
 Alpha  occ. eigenvalues --   -0.34904  -0.34788  -0.34536  -0.34113  -0.33963
 Alpha  occ. eigenvalues --   -0.33432  -0.32587  -0.32403  -0.31952  -0.31677
 Alpha  occ. eigenvalues --   -0.30919  -0.30262  -0.29732  -0.22641  -0.22582
 Alpha  occ. eigenvalues --   -0.20600
 Alpha virt. eigenvalues --   -0.12377  -0.11211  -0.10804  -0.07814  -0.07071
 Alpha virt. eigenvalues --   -0.06967  -0.06702  -0.04740  -0.04614  -0.04340
 Alpha virt. eigenvalues --   -0.03945  -0.03644  -0.03244  -0.02160  -0.01273

 Mulliken charges:
               1
     1  N   -0.752682
     2  H    0.409687
     3  H    0.417241
     4  H    0.420490
     5  C   -0.118652
     6  H    0.203265
     7  C    0.658346
     8  C    0.132501
     9  H    0.169059
    10  O   -0.534757
    11  C   -0.483195
    12  H    0.185989
    13  H    0.182961
    14  H    0.179267
    15  O   -0.648115
    16  H    0.429349
    17  N   -0.598053
    18  H    0.360025
    19  C   -0.066173
    20  H    0.203866
    21  C    0.627320
    22  C   -0.390768
    23  H    0.165872
    24  H    0.216549
    25  O   -0.549666
    26  C    0.162637
    27  C   -0.148526
    28  H    0.167294
    29  C   -0.192979
    30  H    0.144182
    31  C   -0.128641
    32  H    0.162302
    33  C   -0.203800
    34  H    0.157240
    35  C   -0.162732
    36  H    0.158721
    37  N   -0.626360
    38  H    0.386323
    39  C   -0.018681
    40  H    0.170980
    41  C    0.590934
    42  C   -0.447833
    43  H    0.163477
    44  H    0.178248
    45  H    0.170103
    46  O   -0.539888
    47  N   -0.603655
    48  H    0.353538
    49  C   -0.061495
    50  H    0.201895
    51  C    0.618262
    52  C   -0.273085
    53  H    0.181896
    54  H    0.162086
    55  O   -0.549183
    56  C   -0.368089
    57  H    0.171742
    58  H    0.192155
    59  C    0.630140
    60  O   -0.509940
    61  O   -0.543943
    62  N   -0.614415
    63  H    0.363078
    64  C   -0.040565
    65  H    0.175087
    66  C    0.626010
    67  C   -0.447158
    68  H    0.143267
    69  H    0.163969
    70  H    0.186011
    71  O   -0.544427
    72  N   -0.623774
    73  H    0.343198
    74  C   -0.045096
    75  H    0.187632
    76  C    0.615621
    77  C   -0.255912
    78  H    0.149648
    79  H    0.127772
    80  O   -0.634420
    81  C   -0.094994
    82  H    0.166802
    83  C   -0.436120
    84  H    0.124911
    85  H    0.146237
    86  H    0.166827
    87  C   -0.443795
    88  H    0.128392
    89  H    0.157483
    90  H    0.130293
    91  N   -0.581865
    92  H    0.383923
    93  C   -0.091901
    94  H    0.130329
    95  C    0.590172
    96  C   -0.267127
    97  H    0.195826
    98  H    0.137339
    99  O   -0.600793
   100  C   -0.272714
   101  H    0.145964
   102  H    0.140698
   103  C   -0.192047
   104  H    0.171799
   105  H    0.212326
   106  N   -0.585710
   107  H    0.350060
   108  N   -0.780214
   109  H    0.356862
   110  H    0.455542
   111  N   -0.764636
   112  H    0.367357
   113  H    0.367398
   114  C    0.785653
   115  O   -0.566089
   116  H    0.425235
 Sum of Mulliken charges =   1.00000

 Dipole moment (field-independent basis, Debye):
    X=            -15.7295    Y=            -10.0427    Z=            -36.7127  Tot=             41.1836
 Quadrupole moment (field-independent basis, Debye-Ang):
   XX=            104.4729   YY=           -197.8339   ZZ=           -311.3850
   XY=            218.8251   XZ=            126.0474   YZ=            104.8067

 Normal termination of Gaussian 16 at Sat Jul 16 15:21:19 2022.
