 Gaussian 16, Revision C.01,
 Gaussian 16:  ES64L-G16RevC.01  3-Jul-2019

 ----------------------------------------------------------------------
 # B3LYP/6-31G* empiricaldispersion=gd3bj guess=read geom=check nosymm
 integral(ultrafinegrid)
 ----------------------------------------------------------------------

 -----------------------------------------------------
 Candidate Structure: Conf:35 Charge calc in gas phase
 -----------------------------------------------------
 Structure from the checkpoint file:  "conf-35.chk"
 Charge =  1 Multiplicity = 1

                          Input orientation:
 ---------------------------------------------------------------------
 Center     Atomic      Atomic             Coordinates (Angstroms)
 Number     Number       Type             X           Y           Z
 ---------------------------------------------------------------------
      1          7           0       -5.514997   -4.799852   -4.018014
      2          1           0       -6.416131   -4.722664   -3.518997
      3          1           0       -5.671559   -4.451137   -4.983468
      4          1           0       -5.143370   -5.760789   -4.005208
      5          6           0       -4.482382   -3.881224   -3.429948
      6          1           0       -4.577716   -3.902224   -2.343817
      7          6           0       -4.830207   -2.516714   -4.029991
      8          6           0       -3.099893   -4.398971   -3.880722
      9          1           0       -3.032116   -4.275426   -4.967774
     10          8           0       -5.295547   -2.497360   -5.172768
     11          6           0       -1.967500   -3.645763   -3.199366
     12          1           0       -1.998581   -2.582389   -3.457212
     13          1           0       -1.005296   -4.049999   -3.524410
     14          1           0       -2.042170   -3.728614   -2.108611
     15          8           0       -3.072798   -5.810812   -3.657312
     16          1           0       -2.676456   -5.983234   -2.787595
     17          7           0       -4.619956   -1.458130   -3.240896
     18          1           0       -4.326391   -1.636424   -2.279644
     19          6           0       -5.238184   -0.178383   -3.552243
     20          1           0       -5.462634   -0.206285   -4.622458
     21          6           0       -4.192418    0.931421   -3.335252
     22          6           0       -6.570292   -0.050412   -2.757890
     23          1           0       -6.347338    0.168275   -1.706697
     24          1           0       -7.145335    0.792172   -3.159053
     25          8           0       -3.008610    0.709821   -3.582781
     26          6           0       -7.380309   -1.326485   -2.850595
     27          6           0       -8.150448   -1.607637   -3.986166
     28          1           0       -8.229625   -0.866874   -4.777013
     29          6           0       -7.281849   -2.299513   -1.848602
     30          1           0       -6.681306   -2.102105   -0.965777
     31          6           0       -8.799932   -2.833156   -4.125103
     32          1           0       -9.397652   -3.029008   -5.009971
     33          6           0       -7.931837   -3.530953   -1.979395
     34          1           0       -7.872921   -4.260275   -1.175359
     35          6           0       -8.692433   -3.803385   -3.122751
     36          1           0       -9.226687   -4.745245   -3.214654
     37          7           0       -4.653054    2.126330   -2.889906
     38          1           0       -5.604018    2.194225   -2.553456
     39          6           0       -3.741776    3.199965   -2.448896
     40          1           0       -2.935436    3.254880   -3.184184
     41          6           0       -3.202398    2.729156   -1.081894
     42          6           0       -4.487011    4.520897   -2.348171
     43          1           0       -3.790986    5.319731   -2.078374
     44          1           0       -5.247789    4.469581   -1.563485
     45          1           0       -4.954871    4.774089   -3.303798
     46          8           0       -3.813796    2.930070   -0.042480
     47          7           0       -2.063633    1.969916   -1.167360
     48          1           0       -1.840106    1.658731   -2.110005
     49          6           0       -1.792722    0.984099   -0.122555
     50          1           0       -2.062462    1.458185    0.827381
     51          6           0       -0.297568    0.630813   -0.079113
     52          6           0       -2.676957   -0.252988   -0.350257
     53          1           0       -2.341002   -0.756551   -1.262050
     54          1           0       -3.694715    0.112143   -0.531848
     55          8           0        0.088814   -0.494914    0.246588
     56          6           0       -2.703701   -1.243179    0.808055
     57          1           0       -1.690844   -1.619267    0.993639
     58          1           0       -3.030947   -0.772996    1.743322
     59          6           0       -3.604702   -2.408867    0.530369
     60          8           0       -4.141895   -2.660866   -0.547364
     61          8           0       -3.773578   -3.199628    1.595777
     62          7           0        0.528500    1.642105   -0.398076
     63          1           0        0.170035    2.560262   -0.647728
     64          6           0        1.973451    1.548455   -0.314091
     65          1           0        2.242724    1.073821    0.636637
     66          6           0        2.491408    2.995025   -0.345877
     67          6           0        2.569385    0.728667   -1.470853
     68          1           0        3.659718    0.670761   -1.389281
     69          1           0        2.316940    1.192958   -2.429652
     70          1           0        2.160485   -0.283920   -1.442020
     71          8           0        1.765954    3.915506   -0.725841
     72          7           0        3.770477    3.146168    0.051023
     73          1           0        4.358852    2.331022    0.197979
     74          6           0        4.526721    4.375537   -0.118885
     75          1           0        4.024645    4.982320   -0.877583
     76          6           0        5.921001    3.961427   -0.607640
     77          6           0        4.657769    5.170816    1.198357
     78          1           0        5.153168    4.518116    1.929218
     79          1           0        5.333599    6.020361    1.030445
     80          8           0        6.320339    2.799257   -0.477696
     81          6           0        3.333627    5.690961    1.780342
     82          1           0        2.649110    4.837836    1.880533
     83          6           0        3.583120    6.270234    3.178856
     84          1           0        4.268632    7.125698    3.131168
     85          1           0        4.025013    5.524698    3.850273
     86          1           0        2.647803    6.619356    3.630048
     87          6           0        2.671965    6.729550    0.866461
     88          1           0        3.349684    7.573067    0.680232
     89          1           0        1.766969    7.131001    1.336151
     90          1           0        2.376302    6.292405   -0.090920
     91          7           0        6.662578    4.952884   -1.140918
     92          1           0        6.345288    5.917614   -1.096033
     93          6           0        8.094953    4.825479   -1.349253
     94          1           0        8.452710    4.030463   -0.695562
     95          6           0        8.740978    6.156398   -0.929260
     96          6           0        8.444583    4.498166   -2.817121
     97          1           0        9.495886    4.744561   -2.996832
     98          1           0        7.860349    5.172386   -3.453421
     99          8           0       10.043432    6.129878   -0.691338
    100          6           0        8.169188    3.042951   -3.221268
    101          1           0        8.334332    2.946057   -4.302989
    102          1           0        7.117841    2.796909   -3.035331
    103          6           0        9.030168    1.999648   -2.488799
    104          1           0        8.789645    0.998076   -2.857530
    105          1           0        8.786139    1.992692   -1.424374
    106          7           0       10.471313    2.192636   -2.656132
    107          1           0       10.852259    1.930828   -3.556384
    108          7           0       10.927692    3.571650   -0.764775
    109          1           0       10.421788    5.184896   -0.669433
    110          1           0       10.300393    2.932995   -0.278883
    111          7           0       12.213589    3.724837   -2.674442
    112          1           0       12.079644    3.934544   -3.655122
    113          1           0       12.722707    4.429749   -2.156588
    114          6           0       11.163388    3.168608   -1.979889
    115          8           0        8.074852    7.172830   -0.866759
    116          1           0       -4.364234   -3.932252    1.338136
 ---------------------------------------------------------------------

 SCF Done:  E(RB3LYP) =  -2782.55852780     A.U. after    1 cycles

 Alpha  occ. eigenvalues --  -19.31094 -19.28912 -19.26524 -19.24969 -19.22178
 Alpha  occ. eigenvalues --  -19.20848 -19.20114 -19.18551 -19.18194 -19.18034
 Alpha  occ. eigenvalues --  -19.16843 -14.58047 -14.48267 -14.46912 -14.43775
 Alpha  occ. eigenvalues --  -14.42346 -14.41916 -14.41691 -14.41549 -14.41030
 Alpha  occ. eigenvalues --  -14.35323 -10.44020 -10.41953 -10.39609 -10.38089
 Alpha  occ. eigenvalues --  -10.38046 -10.36864 -10.35864 -10.35339 -10.35281
 Alpha  occ. eigenvalues --  -10.35158 -10.35021 -10.34795 -10.32405 -10.31360
 Alpha  occ. eigenvalues --  -10.31289 -10.31116 -10.30680 -10.30479 -10.30218
 Alpha  occ. eigenvalues --  -10.30088 -10.29994 -10.29972 -10.29891 -10.29002
 Alpha  occ. eigenvalues --  -10.28923 -10.28507 -10.28329 -10.28095 -10.26189
 Alpha  occ. eigenvalues --  -10.24768 -10.24614 -10.24452 -10.23675 -10.23091
 Alpha  occ. eigenvalues --  -10.21166 -10.20690  -1.22440  -1.17924  -1.16197
 Alpha  occ. eigenvalues --   -1.14339  -1.13164  -1.12506  -1.12077  -1.11957
 Alpha  occ. eigenvalues --   -1.10711  -1.10051  -1.09397  -1.05546  -1.04747
 Alpha  occ. eigenvalues --   -1.04347  -1.02975  -1.01180  -0.98928  -0.98725
 Alpha  occ. eigenvalues --   -0.98337  -0.96992  -0.95338  -0.92347  -0.90732
 Alpha  occ. eigenvalues --   -0.90223  -0.89578  -0.86881  -0.86526  -0.85666
 Alpha  occ. eigenvalues --   -0.85157  -0.84957  -0.84030  -0.82803  -0.81778
 Alpha  occ. eigenvalues --   -0.80505  -0.78253  -0.78040  -0.76109  -0.75803
 Alpha  occ. eigenvalues --   -0.73487  -0.73313  -0.72719  -0.72158  -0.72102
 Alpha  occ. eigenvalues --   -0.71867  -0.71019  -0.70426  -0.70197  -0.69798
 Alpha  occ. eigenvalues --   -0.69448  -0.68463  -0.66809  -0.66450  -0.65996
 Alpha  occ. eigenvalues --   -0.65117  -0.64578  -0.63992  -0.63846  -0.63753
 Alpha  occ. eigenvalues --   -0.63378  -0.62815  -0.62451  -0.62173  -0.61783
 Alpha  occ. eigenvalues --   -0.61374  -0.60835  -0.59831  -0.59573  -0.59328
 Alpha  occ. eigenvalues --   -0.59152  -0.58627  -0.57993  -0.57724  -0.57449
 Alpha  occ. eigenvalues --   -0.56931  -0.56894  -0.56576  -0.55737  -0.55512
 Alpha  occ. eigenvalues --   -0.55059  -0.54702  -0.54383  -0.54042  -0.53464
 Alpha  occ. eigenvalues --   -0.53374  -0.53107  -0.52942  -0.52629  -0.52266
 Alpha  occ. eigenvalues --   -0.51663  -0.51413  -0.51341  -0.50980  -0.50741
 Alpha  occ. eigenvalues --   -0.50661  -0.50478  -0.50337  -0.49786  -0.49617
 Alpha  occ. eigenvalues --   -0.49399  -0.49310  -0.49048  -0.48972  -0.48704
 Alpha  occ. eigenvalues --   -0.48527  -0.47932  -0.47757  -0.47488  -0.47243
 Alpha  occ. eigenvalues --   -0.46841  -0.46417  -0.46392  -0.46179  -0.46026
 Alpha  occ. eigenvalues --   -0.45849  -0.45654  -0.45521  -0.45277  -0.45190
 Alpha  occ. eigenvalues --   -0.45063  -0.44872  -0.44522  -0.44180  -0.44023
 Alpha  occ. eigenvalues --   -0.43573  -0.43403  -0.43288  -0.42931  -0.42692
 Alpha  occ. eigenvalues --   -0.42171  -0.42029  -0.41692  -0.41543  -0.41259
 Alpha  occ. eigenvalues --   -0.40336  -0.40253  -0.39733  -0.39266  -0.39260
 Alpha  occ. eigenvalues --   -0.38446  -0.37368  -0.37281  -0.36780  -0.36700
 Alpha  occ. eigenvalues --   -0.36576  -0.36022  -0.35529  -0.34624  -0.34097
 Alpha  occ. eigenvalues --   -0.33994  -0.33223  -0.32750  -0.32600  -0.32192
 Alpha  occ. eigenvalues --   -0.32033  -0.31752  -0.31442  -0.30835  -0.30282
 Alpha  occ. eigenvalues --   -0.29143
 Alpha virt. eigenvalues --   -0.12411  -0.11878  -0.11288  -0.10703  -0.09191
 Alpha virt. eigenvalues --   -0.07122  -0.06574  -0.05067  -0.04275  -0.03868
 Alpha virt. eigenvalues --   -0.03713  -0.03499  -0.02715  -0.02391  -0.01859

 Mulliken charges:
               1
     1  N   -0.749416
     2  H    0.408185
     3  H    0.417058
     4  H    0.414391
     5  C   -0.152393
     6  H    0.218975
     7  C    0.649202
     8  C    0.128147
     9  H    0.185620
    10  O   -0.540569
    11  C   -0.506341
    12  H    0.206539
    13  H    0.197666
    14  H    0.162423
    15  O   -0.631076
    16  H    0.416791
    17  N   -0.605162
    18  H    0.407148
    19  C   -0.079012
    20  H    0.227313
    21  C    0.636658
    22  C   -0.404062
    23  H    0.173776
    24  H    0.177519
    25  O   -0.533358
    26  C    0.158648
    27  C   -0.148631
    28  H    0.155295
    29  C   -0.179596
    30  H    0.150788
    31  C   -0.127892
    32  H    0.165151
    33  C   -0.184301
    34  H    0.150829
    35  C   -0.176183
    36  H    0.160545
    37  N   -0.605969
    38  H    0.351677
    39  C   -0.061087
    40  H    0.186466
    41  C    0.614028
    42  C   -0.473928
    43  H    0.186830
    44  H    0.179225
    45  H    0.165891
    46  O   -0.511132
    47  N   -0.620000
    48  H    0.363808
    49  C   -0.070084
    50  H    0.207791
    51  C    0.614265
    52  C   -0.279002
    53  H    0.161620
    54  H    0.139659
    55  O   -0.550321
    56  C   -0.377774
    57  H    0.251114
    58  H    0.198926
    59  C    0.596079
    60  O   -0.518259
    61  O   -0.530459
    62  N   -0.609208
    63  H    0.368970
    64  C   -0.032073
    65  H    0.178563
    66  C    0.614585
    67  C   -0.455171
    68  H    0.161266
    69  H    0.158198
    70  H    0.181335
    71  O   -0.538618
    72  N   -0.601951
    73  H    0.353927
    74  C   -0.078214
    75  H    0.184575
    76  C    0.620647
    77  C   -0.257960
    78  H    0.142850
    79  H    0.150296
    80  O   -0.558575
    81  C   -0.066500
    82  H    0.131493
    83  C   -0.445369
    84  H    0.148430
    85  H    0.140771
    86  H    0.146108
    87  C   -0.464396
    88  H    0.137729
    89  H    0.143733
    90  H    0.172084
    91  N   -0.600629
    92  H    0.358178
    93  C   -0.074775
    94  H    0.165834
    95  C    0.599759
    96  C   -0.267470
    97  H    0.144872
    98  H    0.159556
    99  O   -0.602853
   100  C   -0.259595
   101  H    0.131835
   102  H    0.164556
   103  C   -0.170388
   104  H    0.160428
   105  H    0.183412
   106  N   -0.575226
   107  H    0.325324
   108  N   -0.734574
   109  H    0.463812
   110  H    0.302108
   111  N   -0.738145
   112  H    0.330820
   113  H    0.357888
   114  C    0.644339
   115  O   -0.480844
   116  H    0.414215
 Sum of Mulliken charges =   1.00000

 Dipole moment (field-independent basis, Debye):
    X=            -17.1838    Y=            -15.3128    Z=            -16.4565  Tot=             28.2945
 Quadrupole moment (field-independent basis, Debye-Ang):
   XX=           -119.3763   YY=           -276.1113   ZZ=           -274.4795
   XY=             74.2657   XZ=             17.9063   YZ=             20.5434

 Normal termination of Gaussian 16 at Sat Jul 16 15:20:56 2022.
