 Gaussian 16, Revision C.01,
 Gaussian 16:  ES64L-G16RevC.01  3-Jul-2019

 ----------------------------------------------------------------------
 # B3LYP/6-31G* empiricaldispersion=gd3bj guess=read geom=check nosymm
 integral(ultrafinegrid)
 ----------------------------------------------------------------------

 ------------------------------------------------------
 Candidate Structure: Conf:961 Charge calc in gas phase
 ------------------------------------------------------
 Structure from the checkpoint file:  "conf-961.chk"
 Charge =  1 Multiplicity = 1

                          Input orientation:
 ---------------------------------------------------------------------
 Center     Atomic      Atomic             Coordinates (Angstroms)
 Number     Number       Type             X           Y           Z
 ---------------------------------------------------------------------
      1          7           0       -6.824626   -4.898222   -7.349830
      2          1           0       -6.659298   -5.738970   -6.769141
      3          1           0       -7.565546   -4.349506   -6.870638
      4          1           0       -7.075124   -5.135000   -8.319667
      5          6           0       -5.623510   -3.995336   -7.363096
      6          1           0       -4.735203   -4.624537   -7.443600
      7          6           0       -5.725625   -3.261264   -6.016075
      8          6           0       -5.741753   -3.068517   -8.580601
      9          1           0       -6.575553   -2.373352   -8.399688
     10          8           0       -6.860108   -3.027809   -5.589395
     11          6           0       -4.452694   -2.293507   -8.819066
     12          1           0       -4.208393   -1.661696   -7.958783
     13          1           0       -4.561085   -1.637451   -9.688433
     14          1           0       -3.621121   -2.979887   -9.008522
     15          8           0       -6.064129   -3.958812   -9.652057
     16          1           0       -6.213829   -3.447469  -10.462872
     17          7           0       -4.583149   -2.990715   -5.386438
     18          1           0       -3.666400   -3.127765   -5.807296
     19          6           0       -4.527754   -2.643045   -3.976699
     20          1           0       -5.407304   -2.045657   -3.730647
     21          6           0       -3.214236   -1.867366   -3.793913
     22          6           0       -4.479070   -3.939341   -3.097205
     23          1           0       -3.442411   -4.292187   -3.080940
     24          1           0       -4.744413   -3.664014   -2.071499
     25          8           0       -2.292429   -2.057494   -4.593009
     26          6           0       -5.371014   -5.044419   -3.614268
     27          6           0       -6.733128   -5.099453   -3.291908
     28          1           0       -7.152224   -4.358531   -2.617211
     29          6           0       -4.854097   -6.003806   -4.494574
     30          1           0       -3.794113   -5.989079   -4.735855
     31          6           0       -7.559969   -6.079665   -3.838023
     32          1           0       -8.611125   -6.109660   -3.567936
     33          6           0       -5.675005   -6.995158   -5.045175
     34          1           0       -5.244448   -7.758717   -5.688350
     35          6           0       -7.036195   -7.032735   -4.718584
     36          1           0       -7.673223   -7.818083   -5.116279
     37          7           0       -3.155183   -1.074439   -2.719828
     38          1           0       -3.924126   -0.982940   -2.056440
     39          6           0       -1.952371   -0.376267   -2.291993
     40          1           0       -1.109363   -1.076972   -2.319770
     41          6           0       -2.232100    0.042337   -0.835335
     42          6           0       -1.636658    0.830944   -3.186866
     43          1           0       -0.721059    1.330968   -2.857273
     44          1           0       -2.457586    1.553957   -3.153159
     45          1           0       -1.496119    0.493462   -4.216393
     46          8           0       -3.359734   -0.093546   -0.349162
     47          7           0       -1.188086    0.566939   -0.180070
     48          1           0       -0.264577    0.654060   -0.597048
     49          6           0       -1.261487    1.079285    1.178892
     50          1           0       -2.190809    1.640407    1.299894
     51          6           0       -0.040219    1.995486    1.333678
     52          6           0       -1.223586   -0.097130    2.186131
     53          1           0       -0.315146   -0.677273    1.992547
     54          1           0       -2.081081   -0.736453    1.953085
     55          8           0        0.964532    1.802803    0.641504
     56          6           0       -1.236325    0.272460    3.684721
     57          1           0       -1.260187   -0.649023    4.270825
     58          1           0       -0.330352    0.825394    3.957517
     59          6           0       -2.417388    1.129629    4.056648
     60          8           0       -2.557209    2.304169    3.746313
     61          8           0       -3.351872    0.475156    4.766885
     62          7           0       -0.139183    2.956079    2.271818
     63          1           0       -0.968902    2.950149    2.867459
     64          6           0        1.056813    3.639586    2.759956
     65          1           0        1.592476    4.038171    1.893550
     66          6           0        1.925792    2.598658    3.493058
     67          6           0        0.653342    4.760119    3.714180
     68          1           0        1.539345    5.302680    4.056777
     69          1           0        0.150430    4.337733    4.589508
     70          1           0       -0.018792    5.466188    3.217296
     71          8           0        1.456851    1.957846    4.439543
     72          7           0        3.170350    2.438708    3.016961
     73          1           0        3.521213    3.009664    2.255960
     74          6           0        4.119357    1.463709    3.521435
     75          1           0        3.869205    1.257833    4.564980
     76          6           0        5.510150    2.103216    3.399887
     77          6           0        4.102592    0.160693    2.688068
     78          1           0        4.404739    0.427857    1.667280
     79          1           0        4.879920   -0.508793    3.081930
     80          8           0        5.725631    2.964009    2.543107
     81          6           0        2.758819   -0.584045    2.641591
     82          1           0        1.997198    0.133783    2.318176
     83          6           0        2.819612   -1.693493    1.583982
     84          1           0        3.588960   -2.435888    1.831864
     85          1           0        3.051542   -1.284940    0.593654
     86          1           0        1.860981   -2.223105    1.515984
     87          6           0        2.357339   -1.147903    4.009119
     88          1           0        3.120971   -1.840837    4.386119
     89          1           0        1.415934   -1.707048    3.935366
     90          1           0        2.209185   -0.349424    4.740142
     91          7           0        6.439419    1.623231    4.246761
     92          1           0        6.245695    0.841904    4.868570
     93          6           0        7.861834    1.918593    4.142107
     94          1           0        8.176661    1.809833    3.098090
     95          6           0        8.645239    0.895642    4.995554
     96          6           0        8.197181    3.366410    4.560975
     97          1           0        7.710052    4.023689    3.835169
     98          1           0        9.279564    3.490063    4.449011
     99          8           0        7.921282    0.123436    5.735296
    100          6           0        7.753602    3.804792    5.970137
    101          1           0        6.755661    3.404566    6.194316
    102          1           0        7.639561    4.894920    5.965089
    103          6           0        8.704209    3.491563    7.137225
    104          1           0        8.460248    4.141849    7.986431
    105          1           0        9.733201    3.708888    6.824626
    106          7           0        8.621362    2.091335    7.570201
    107          1           0        7.897416    1.525056    7.119838
    108          7           0       10.772513    1.933946    8.462770
    109          1           0       11.657273    1.452594    8.395052
    110          1           0       10.821738    2.940617    8.506710
    111          7           0        9.580588    0.021044    7.835400
    112          1           0        8.981147   -0.282714    7.027073
    113          1           0       10.405961   -0.525953    8.037189
    114          6           0        9.675752    1.350845    7.928234
    115          8           0        9.879925    0.972308    4.983540
    116          1           0       -4.066167    1.116120    4.949794
 ---------------------------------------------------------------------

 SCF Done:  E(RB3LYP) =  -2782.56250733     A.U. after    2 cycles

 Alpha  occ. eigenvalues --  -19.29283 -19.25781 -19.25260 -19.20967 -19.20349
 Alpha  occ. eigenvalues --  -19.19046 -19.17449 -19.15358 -19.14613 -19.12888
 Alpha  occ. eigenvalues --  -19.11180 -14.58072 -14.48702 -14.44644 -14.44410
 Alpha  occ. eigenvalues --  -14.42642 -14.42339 -14.40816 -14.40646 -14.39852
 Alpha  occ. eigenvalues --  -14.38232 -10.42550 -10.39305 -10.39002 -10.38771
 Alpha  occ. eigenvalues --  -10.38288 -10.38180 -10.36042 -10.34400 -10.34157
 Alpha  occ. eigenvalues --  -10.32542 -10.31592 -10.31294 -10.30574 -10.30362
 Alpha  occ. eigenvalues --  -10.30310 -10.30178 -10.30062 -10.30037 -10.29717
 Alpha  occ. eigenvalues --  -10.29714 -10.29559 -10.29337 -10.28580 -10.27980
 Alpha  occ. eigenvalues --  -10.26613 -10.25564 -10.25344 -10.24738 -10.24519
 Alpha  occ. eigenvalues --  -10.23645 -10.22843 -10.22049 -10.21956 -10.21510
 Alpha  occ. eigenvalues --  -10.20895 -10.20021  -1.18333  -1.16814  -1.16608
 Alpha  occ. eigenvalues --   -1.13115  -1.12132  -1.10968  -1.09327  -1.08146
 Alpha  occ. eigenvalues --   -1.07515  -1.07360  -1.06337  -1.05491  -1.05142
 Alpha  occ. eigenvalues --   -1.01374  -0.99417  -0.97650  -0.97619  -0.96742
 Alpha  occ. eigenvalues --   -0.96605  -0.96371  -0.95706  -0.94532  -0.92795
 Alpha  occ. eigenvalues --   -0.89782  -0.86955  -0.85831  -0.85313  -0.84621
 Alpha  occ. eigenvalues --   -0.84383  -0.83576  -0.82744  -0.82143  -0.79359
 Alpha  occ. eigenvalues --   -0.78505  -0.77834  -0.76794  -0.75901  -0.73696
 Alpha  occ. eigenvalues --   -0.73020  -0.71857  -0.71705  -0.71524  -0.71401
 Alpha  occ. eigenvalues --   -0.70877  -0.70325  -0.70213  -0.69676  -0.69044
 Alpha  occ. eigenvalues --   -0.68135  -0.66976  -0.66146  -0.65612  -0.65576
 Alpha  occ. eigenvalues --   -0.64756  -0.64432  -0.63781  -0.63348  -0.62663
 Alpha  occ. eigenvalues --   -0.62272  -0.61696  -0.61481  -0.60429  -0.59913
 Alpha  occ. eigenvalues --   -0.59605  -0.59063  -0.58610  -0.58277  -0.57308
 Alpha  occ. eigenvalues --   -0.56682  -0.56343  -0.56265  -0.56084  -0.55713
 Alpha  occ. eigenvalues --   -0.55538  -0.55362  -0.55187  -0.54514  -0.54153
 Alpha  occ. eigenvalues --   -0.53334  -0.53278  -0.52998  -0.52819  -0.52671
 Alpha  occ. eigenvalues --   -0.52210  -0.52165  -0.51752  -0.51649  -0.51404
 Alpha  occ. eigenvalues --   -0.51224  -0.51033  -0.50625  -0.50488  -0.50052
 Alpha  occ. eigenvalues --   -0.49916  -0.49712  -0.49228  -0.48644  -0.48259
 Alpha  occ. eigenvalues --   -0.48090  -0.47967  -0.47481  -0.47375  -0.47148
 Alpha  occ. eigenvalues --   -0.47021  -0.46747  -0.46650  -0.46341  -0.45967
 Alpha  occ. eigenvalues --   -0.45461  -0.45321  -0.44997  -0.44652  -0.44557
 Alpha  occ. eigenvalues --   -0.44535  -0.44333  -0.44085  -0.43879  -0.43474
 Alpha  occ. eigenvalues --   -0.43188  -0.42949  -0.42263  -0.42110  -0.41827
 Alpha  occ. eigenvalues --   -0.41722  -0.41708  -0.41395  -0.41169  -0.40987
 Alpha  occ. eigenvalues --   -0.40850  -0.40562  -0.40021  -0.39798  -0.39136
 Alpha  occ. eigenvalues --   -0.38748  -0.38667  -0.38033  -0.37774  -0.36952
 Alpha  occ. eigenvalues --   -0.35885  -0.35857  -0.35835  -0.35589  -0.35532
 Alpha  occ. eigenvalues --   -0.34897  -0.34829  -0.34512  -0.33908  -0.33303
 Alpha  occ. eigenvalues --   -0.32525  -0.31847  -0.31665  -0.31099  -0.29955
 Alpha  occ. eigenvalues --   -0.28933  -0.28521  -0.28238  -0.27721  -0.27380
 Alpha  occ. eigenvalues --   -0.25169
 Alpha virt. eigenvalues --   -0.12776  -0.11604  -0.11193  -0.07032  -0.06655
 Alpha virt. eigenvalues --   -0.05491  -0.04714  -0.04558  -0.04239  -0.03818
 Alpha virt. eigenvalues --   -0.03477  -0.01682  -0.01508  -0.00962  -0.00551

 Mulliken charges:
               1
     1  N   -0.752913
     2  H    0.410163
     3  H    0.417132
     4  H    0.421646
     5  C   -0.118474
     6  H    0.205207
     7  C    0.657880
     8  C    0.132382
     9  H    0.169195
    10  O   -0.535797
    11  C   -0.483371
    12  H    0.185531
    13  H    0.183928
    14  H    0.180663
    15  O   -0.648243
    16  H    0.430102
    17  N   -0.601074
    18  H    0.363986
    19  C   -0.060935
    20  H    0.198335
    21  C    0.635881
    22  C   -0.370654
    23  H    0.181501
    24  H    0.185116
    25  O   -0.550288
    26  C    0.163762
    27  C   -0.144321
    28  H    0.157493
    29  C   -0.190059
    30  H    0.149322
    31  C   -0.129735
    32  H    0.164006
    33  C   -0.194507
    34  H    0.160360
    35  C   -0.171232
    36  H    0.161290
    37  N   -0.619240
    38  H    0.362891
    39  C   -0.043793
    40  H    0.184514
    41  C    0.627124
    42  C   -0.452485
    43  H    0.169264
    44  H    0.164212
    45  H    0.184941
    46  O   -0.553165
    47  N   -0.623470
    48  H    0.360972
    49  C   -0.049634
    50  H    0.191517
    51  C    0.614735
    52  C   -0.292137
    53  H    0.175185
    54  H    0.177445
    55  O   -0.556778
    56  C   -0.401513
    57  H    0.178482
    58  H    0.249358
    59  C    0.600619
    60  O   -0.487024
    61  O   -0.546466
    62  N   -0.621397
    63  H    0.390782
    64  C   -0.037183
    65  H    0.163614
    66  C    0.633709
    67  C   -0.477467
    68  H    0.167055
    69  H    0.178889
    70  H    0.164436
    71  O   -0.553241
    72  N   -0.578519
    73  H    0.354084
    74  C   -0.076961
    75  H    0.173539
    76  C    0.622774
    77  C   -0.252695
    78  H    0.148213
    79  H    0.142409
    80  O   -0.551628
    81  C   -0.082780
    82  H    0.149809
    83  C   -0.447711
    84  H    0.143180
    85  H    0.142990
    86  H    0.127853
    87  C   -0.466622
    88  H    0.134666
    89  H    0.126318
    90  H    0.181558
    91  N   -0.623147
    92  H    0.351830
    93  C   -0.033417
    94  H    0.171399
    95  C    0.584493
    96  C   -0.271037
    97  H    0.174216
    98  H    0.157030
    99  O   -0.651035
   100  C   -0.309189
   101  H    0.158349
   102  H    0.155144
   103  C   -0.141104
   104  H    0.161816
   105  H    0.159835
   106  N   -0.585158
   107  H    0.370328
   108  N   -0.755443
   109  H    0.364310
   110  H    0.366722
   111  N   -0.747665
   112  H    0.409874
   113  H    0.337857
   114  C    0.771227
   115  O   -0.571761
   116  H    0.416024
 Sum of Mulliken charges =   1.00000

 Dipole moment (field-independent basis, Debye):
    X=            -17.0679    Y=            -13.7297    Z=            -17.7516  Tot=             28.1946
 Quadrupole moment (field-independent basis, Debye-Ang):
   XX=            -66.0801   YY=           -224.9495   ZZ=             -7.8405
   XY=            145.4842   XZ=            287.2383   YZ=            156.7942

 Normal termination of Gaussian 16 at Sat Jul 16 15:21:43 2022.
