 Gaussian 16, Revision C.01,
 Gaussian 16:  ES64L-G16RevC.01  3-Jul-2019

 ----------------------------------------------------------------------
 # B3LYP/6-31G* empiricaldispersion=gd3bj guess=read geom=check nosymm
 integral(ultrafinegrid)
 ----------------------------------------------------------------------

 ------------------------------------------------------
 Candidate Structure: Conf:879 Charge calc in gas phase
 ------------------------------------------------------
 Structure from the checkpoint file:  "conf-879.chk"
 Charge =  1 Multiplicity = 1

                          Input orientation:
 ---------------------------------------------------------------------
 Center     Atomic      Atomic             Coordinates (Angstroms)
 Number     Number       Type             X           Y           Z
 ---------------------------------------------------------------------
      1          7           0       -7.162334   -1.471269    0.289776
      2          1           0       -6.751672   -0.994688    1.096522
      3          1           0       -7.741276   -0.776122   -0.237775
      4          1           0       -7.692520   -2.302297    0.604008
      5          6           0       -6.134333   -1.934257   -0.703721
      6          1           0       -5.176467   -2.073848   -0.196308
      7          6           0       -6.074437   -0.797556   -1.740183
      8          6           0       -6.650361   -3.276222   -1.300922
      9          1           0       -7.473881   -3.048631   -1.987443
     10          8           0       -6.995324    0.028942   -1.759331
     11          6           0       -5.556646   -4.050187   -2.022247
     12          1           0       -5.195069   -3.511380   -2.902509
     13          1           0       -5.956363   -5.009760   -2.361468
     14          1           0       -4.701704   -4.227043   -1.358847
     15          8           0       -7.248890   -4.022126   -0.237787
     16          1           0       -6.597941   -4.648191    0.120304
     17          7           0       -5.017454   -0.826277   -2.540391
     18          1           0       -4.316796   -1.558667   -2.452412
     19          6           0       -4.695893    0.145406   -3.575066
     20          1           0       -5.532140    0.206950   -4.282635
     21          6           0       -3.487173   -0.482627   -4.301975
     22          6           0       -4.451594    1.561031   -2.984693
     23          1           0       -4.177598    2.237940   -3.801751
     24          1           0       -5.419352    1.910661   -2.614172
     25          8           0       -3.140682   -1.639361   -4.032220
     26          6           0       -3.419410    1.612271   -1.881217
     27          6           0       -3.795407    1.348025   -0.556007
     28          1           0       -4.842750    1.161120   -0.329384
     29          6           0       -2.081077    1.925439   -2.148290
     30          1           0       -1.759974    2.142653   -3.161658
     31          6           0       -2.853529    1.376848    0.472201
     32          1           0       -3.160070    1.181073    1.496336
     33          6           0       -1.134700    1.966831   -1.120233
     34          1           0       -0.097562    2.207079   -1.339417
     35          6           0       -1.520289    1.684365    0.191615
     36          1           0       -0.785148    1.711742    0.987807
     37          7           0       -2.864431    0.267053   -5.227750
     38          1           0       -3.104302    1.245832   -5.314820
     39          6           0       -1.572820   -0.149189   -5.804642
     40          1           0       -1.657572   -1.214897   -6.029050
     41          6           0       -0.518010    0.097431   -4.707155
     42          6           0       -1.274755    0.651708   -7.062867
     43          1           0       -0.342699    0.300531   -7.513728
     44          1           0       -1.143288    1.709312   -6.816477
     45          1           0       -2.080595    0.536846   -7.793350
     46          8           0       -0.049608    1.226182   -4.538469
     47          7           0       -0.243473   -0.960463   -3.915153
     48          1           0       -0.755538   -1.815538   -4.087840
     49          6           0        0.439548   -0.825649   -2.623367
     50          1           0        0.151353    0.149690   -2.221160
     51          6           0        1.977886   -0.762647   -2.722413
     52          6           0        0.006777   -1.904137   -1.636343
     53          1           0        0.622248   -1.786432   -0.743567
     54          1           0        0.242477   -2.900450   -2.027561
     55          8           0        2.690746   -1.549924   -2.113532
     56          6           0       -1.473198   -1.806560   -1.246127
     57          1           0       -1.771998   -0.755886   -1.134841
     58          1           0       -2.133936   -2.233057   -2.004679
     59          6           0       -1.747969   -2.462620    0.080151
     60          8           0       -0.955538   -2.718142    0.951174
     61          8           0       -3.090316   -2.752666    0.262446
     62          7           0        2.460218    0.313462   -3.412904
     63          1           0        1.747059    0.978961   -3.705503
     64          6           0        3.686259    0.917455   -2.896491
     65          1           0        4.481775    0.169388   -2.935112
     66          6           0        3.411705    1.311828   -1.425697
     67          6           0        4.059603    2.145567   -3.724333
     68          1           0        4.989882    2.586369   -3.353687
     69          1           0        3.271583    2.903549   -3.654302
     70          1           0        4.195463    1.872187   -4.774906
     71          8           0        2.307997    1.763220   -1.097452
     72          7           0        4.427886    1.110326   -0.573306
     73          1           0        5.337430    0.800284   -0.900500
     74          6           0        4.376803    1.384402    0.851620
     75          1           0        3.619563    2.153549    1.022560
     76          6           0        5.775033    1.882372    1.247573
     77          6           0        4.061127    0.111224    1.672979
     78          1           0        4.892201   -0.588352    1.515649
     79          1           0        4.076952    0.381294    2.738034
     80          8           0        6.761640    1.546119    0.585679
     81          6           0        2.737735   -0.596120    1.340832
     82          1           0        2.727064   -0.800014    0.263811
     83          6           0        2.670538   -1.945613    2.067706
     84          1           0        2.694938   -1.808246    3.156810
     85          1           0        3.514475   -2.587901    1.791646
     86          1           0        1.744264   -2.474697    1.817211
     87          6           0        1.516169    0.263973    1.685326
     88          1           0        1.510678    0.526277    2.752062
     89          1           0        0.592652   -0.290088    1.476488
     90          1           0        1.504603    1.182117    1.091861
     91          7           0        5.826440    2.635087    2.358896
     92          1           0        5.000792    2.846094    2.916617
     93          6           0        7.058654    3.014152    3.032231
     94          1           0        7.700545    2.133699    3.145514
     95          6           0        6.663687    3.543021    4.431813
     96          6           0        7.848430    4.073307    2.231235
     97          1           0        8.051605    3.642314    1.248110
     98          1           0        8.820654    4.202430    2.721673
     99          8           0        7.645763    3.827568    5.202306
    100          6           0        7.119235    5.431732    2.082993
    101          1           0        6.088802    5.346176    2.447805
    102          1           0        7.054770    5.713569    1.025655
    103          6           0        7.806473    6.593337    2.817916
    104          1           0        7.270339    7.527259    2.628284
    105          1           0        8.829414    6.726533    2.450171
    106          7           0        7.882579    6.356617    4.265288
    107          1           0        8.196538    5.404763    4.520214
    108          7           0        6.357268    7.994541    4.954948
    109          1           0        5.793381    8.372244    5.702116
    110          1           0        6.790637    8.679574    4.353435
    111          7           0        6.800367    6.107614    6.271141
    112          1           0        7.018821    5.080567    6.170526
    113          1           0        6.102459    6.405324    6.937016
    114          6           0        7.004021    6.818540    5.164079
    115          8           0        5.455411    3.730244    4.667592
    116          1           0       -3.120212   -3.152986    1.153511
 ---------------------------------------------------------------------

 SCF Done:  E(RB3LYP) =  -2782.55765279     A.U. after    2 cycles

 Alpha  occ. eigenvalues --  -19.30554 -19.30154 -19.26726 -19.24371 -19.23713
 Alpha  occ. eigenvalues --  -19.20712 -19.17419 -19.15988 -19.14849 -19.12809
 Alpha  occ. eigenvalues --  -19.12513 -14.59582 -14.49708 -14.48102 -14.45166
 Alpha  occ. eigenvalues --  -14.45078 -14.42380 -14.41923 -14.40165 -14.39725
 Alpha  occ. eigenvalues --  -14.38418 -10.43589 -10.41608 -10.41214 -10.39785
 Alpha  occ. eigenvalues --  -10.39721 -10.39702 -10.37608 -10.36122 -10.33999
 Alpha  occ. eigenvalues --  -10.33398 -10.32944 -10.31842 -10.31159 -10.30335
 Alpha  occ. eigenvalues --  -10.30216 -10.30208 -10.28917 -10.28688 -10.28528
 Alpha  occ. eigenvalues --  -10.28020 -10.27972 -10.27557 -10.26910 -10.26909
 Alpha  occ. eigenvalues --  -10.26900 -10.26671 -10.26424 -10.26308 -10.25019
 Alpha  occ. eigenvalues --  -10.23532 -10.23470 -10.22216 -10.22135 -10.21849
 Alpha  occ. eigenvalues --  -10.20574 -10.20227  -1.20216  -1.19510  -1.17840
 Alpha  occ. eigenvalues --   -1.16332  -1.13431  -1.12562  -1.11204  -1.09375
 Alpha  occ. eigenvalues --   -1.08694  -1.07665  -1.06861  -1.06664  -1.05810
 Alpha  occ. eigenvalues --   -1.04340  -1.01293  -0.98394  -0.97201  -0.97122
 Alpha  occ. eigenvalues --   -0.96711  -0.96266  -0.94945  -0.94572  -0.93271
 Alpha  occ. eigenvalues --   -0.90028  -0.88698  -0.86617  -0.85487  -0.84764
 Alpha  occ. eigenvalues --   -0.83787  -0.83106  -0.82822  -0.82692  -0.80897
 Alpha  occ. eigenvalues --   -0.79358  -0.78143  -0.77093  -0.77047  -0.74968
 Alpha  occ. eigenvalues --   -0.74096  -0.73112  -0.72351  -0.72150  -0.72002
 Alpha  occ. eigenvalues --   -0.71537  -0.70516  -0.70249  -0.70110  -0.69014
 Alpha  occ. eigenvalues --   -0.68279  -0.67528  -0.66837  -0.66830  -0.66185
 Alpha  occ. eigenvalues --   -0.65375  -0.65227  -0.64881  -0.63544  -0.62865
 Alpha  occ. eigenvalues --   -0.62532  -0.62044  -0.61633  -0.61043  -0.60348
 Alpha  occ. eigenvalues --   -0.59868  -0.59661  -0.59165  -0.58964  -0.58625
 Alpha  occ. eigenvalues --   -0.58593  -0.58196  -0.58021  -0.57629  -0.57340
 Alpha  occ. eigenvalues --   -0.56945  -0.56564  -0.56127  -0.55867  -0.55051
 Alpha  occ. eigenvalues --   -0.54880  -0.54769  -0.54468  -0.53841  -0.53374
 Alpha  occ. eigenvalues --   -0.52984  -0.52759  -0.51783  -0.51331  -0.51207
 Alpha  occ. eigenvalues --   -0.51155  -0.50951  -0.50875  -0.50588  -0.50458
 Alpha  occ. eigenvalues --   -0.50217  -0.50007  -0.49953  -0.49676  -0.48986
 Alpha  occ. eigenvalues --   -0.48851  -0.48573  -0.48418  -0.48091  -0.47825
 Alpha  occ. eigenvalues --   -0.47774  -0.47593  -0.47393  -0.47102  -0.46636
 Alpha  occ. eigenvalues --   -0.46483  -0.46212  -0.45718  -0.45643  -0.45492
 Alpha  occ. eigenvalues --   -0.45283  -0.44561  -0.44414  -0.43926  -0.43857
 Alpha  occ. eigenvalues --   -0.43475  -0.42861  -0.42829  -0.42455  -0.42386
 Alpha  occ. eigenvalues --   -0.42051  -0.42007  -0.41855  -0.41781  -0.41555
 Alpha  occ. eigenvalues --   -0.41261  -0.40905  -0.40875  -0.40693  -0.40471
 Alpha  occ. eigenvalues --   -0.39824  -0.39596  -0.39087  -0.38884  -0.38424
 Alpha  occ. eigenvalues --   -0.38069  -0.37597  -0.37162  -0.35848  -0.35688
 Alpha  occ. eigenvalues --   -0.35593  -0.35535  -0.35363  -0.34061  -0.33367
 Alpha  occ. eigenvalues --   -0.33021  -0.32280  -0.31621  -0.30388  -0.30226
 Alpha  occ. eigenvalues --   -0.29176  -0.28995  -0.28614  -0.28099  -0.27188
 Alpha  occ. eigenvalues --   -0.26622
 Alpha virt. eigenvalues --   -0.12639  -0.10740  -0.10410  -0.09187  -0.08781
 Alpha virt. eigenvalues --   -0.08240  -0.06930  -0.05889  -0.04904  -0.04858
 Alpha virt. eigenvalues --   -0.04526  -0.03349  -0.02769  -0.01974  -0.01863

 Mulliken charges:
               1
     1  N   -0.747814
     2  H    0.414778
     3  H    0.424615
     4  H    0.425742
     5  C   -0.168249
     6  H    0.235684
     7  C    0.659505
     8  C    0.129599
     9  H    0.188434
    10  O   -0.545040
    11  C   -0.519585
    12  H    0.196077
    13  H    0.202862
    14  H    0.177907
    15  O   -0.630658
    16  H    0.422669
    17  N   -0.617709
    18  H    0.394832
    19  C   -0.041831
    20  H    0.206687
    21  C    0.643327
    22  C   -0.402590
    23  H    0.162701
    24  H    0.201228
    25  O   -0.558951
    26  C    0.177469
    27  C   -0.191616
    28  H    0.100180
    29  C   -0.205736
    30  H    0.157055
    31  C   -0.137299
    32  H    0.129481
    33  C   -0.171395
    34  H    0.212671
    35  C   -0.142557
    36  H    0.173876
    37  N   -0.597924
    38  H    0.351666
    39  C   -0.058429
    40  H    0.181821
    41  C    0.640445
    42  C   -0.474267
    43  H    0.187115
    44  H    0.182899
    45  H    0.168148
    46  O   -0.544745
    47  N   -0.589025
    48  H    0.353542
    49  C   -0.093426
    50  H    0.207119
    51  C    0.627739
    52  C   -0.311591
    53  H    0.228703
    54  H    0.165758
    55  O   -0.509618
    56  C   -0.405777
    57  H    0.210656
    58  H    0.182610
    59  C    0.599846
    60  O   -0.424689
    61  O   -0.612076
    62  N   -0.600508
    63  H    0.370442
    64  C   -0.050653
    65  H    0.173808
    66  C    0.629526
    67  C   -0.469512
    68  H    0.167872
    69  H    0.164738
    70  H    0.168449
    71  O   -0.566723
    72  N   -0.586593
    73  H    0.352686
    74  C   -0.072924
    75  H    0.168685
    76  C    0.624474
    77  C   -0.253702
    78  H    0.148756
    79  H    0.141516
    80  O   -0.555489
    81  C   -0.090449
    82  H    0.165191
    83  C   -0.455191
    84  H    0.134040
    85  H    0.145147
    86  H    0.153557
    87  C   -0.483282
    88  H    0.130015
    89  H    0.129394
    90  H    0.175175
    91  N   -0.615704
    92  H    0.351575
    93  C   -0.034942
    94  H    0.172018
    95  C    0.591052
    96  C   -0.297203
    97  H    0.184226
    98  H    0.149561
    99  O   -0.642786
   100  C   -0.270530
   101  H    0.165519
   102  H    0.148385
   103  C   -0.169982
   104  H    0.142447
   105  H    0.175300
   106  N   -0.600903
   107  H    0.399684
   108  N   -0.751305
   109  H    0.357795
   110  H    0.363801
   111  N   -0.751315
   112  H    0.418352
   113  H    0.340947
   114  C    0.757307
   115  O   -0.572947
   116  H    0.408354
 Sum of Mulliken charges =   1.00000

 Dipole moment (field-independent basis, Debye):
    X=            -22.3420    Y=              4.8404    Z=             -3.0111  Tot=             23.0578
 Quadrupole moment (field-independent basis, Debye-Ang):
   XX=           -164.8510   YY=           -193.9383   ZZ=           -256.8144
   XY=            132.2809   XZ=             27.1372   YZ=             55.0639

 Normal termination of Gaussian 16 at Sat Jul 16 15:22:21 2022.
