 Gaussian 16, Revision C.01,
 Gaussian 16:  ES64L-G16RevC.01  3-Jul-2019

 ----------------------------------------------------------------------
 # B3LYP/6-31G* empiricaldispersion=gd3bj guess=read geom=check nosymm
 integral(ultrafinegrid)
 ----------------------------------------------------------------------

 ------------------------------------------------------
 Candidate Structure: Conf:472 Charge calc in gas phase
 ------------------------------------------------------
 Structure from the checkpoint file:  "conf-472.chk"
 Charge =  1 Multiplicity = 1

                          Input orientation:
 ---------------------------------------------------------------------
 Center     Atomic      Atomic             Coordinates (Angstroms)
 Number     Number       Type             X           Y           Z
 ---------------------------------------------------------------------
      1          7           0       -5.618839   -2.256510   -8.642903
      2          1           0       -5.347209   -3.158713   -8.217594
      3          1           0       -6.472461   -1.939186   -8.141189
      4          1           0       -5.762650   -2.330581   -9.659524
      5          6           0       -4.594759   -1.190395   -8.369845
      6          1           0       -3.606919   -1.641754   -8.479164
      7          6           0       -4.912318   -0.769629   -6.926008
      8          6           0       -4.792552   -0.067438   -9.396747
      9          1           0       -5.744076    0.437210   -9.170513
     10          8           0       -6.095829   -0.813638   -6.577580
     11          6           0       -3.644358    0.932310   -9.357949
     12          1           0       -3.568357    1.406956   -8.374131
     13          1           0       -3.808601    1.725651  -10.093915
     14          1           0       -2.696243    0.437611   -9.592149
     15          8           0       -4.886014   -0.762199  -10.643151
     16          1           0       -5.067208   -0.127174  -11.353912
     17          7           0       -3.879154   -0.454054   -6.149973
     18          1           0       -2.929270   -0.339830   -6.498787
     19          6           0       -3.979056   -0.388280   -4.704313
     20          1           0       -4.961790    0.003376   -4.435428
     21          6           0       -2.834274    0.527080   -4.243694
     22          6           0       -3.766738   -1.812700   -4.091909
     23          1           0       -2.689404   -2.004952   -4.047266
     24          1           0       -4.131370   -1.802860   -3.059773
     25          8           0       -1.866780    0.704463   -4.990139
     26          6           0       -4.436630   -2.895079   -4.904455
     27          6           0       -5.789019   -3.213410   -4.728513
     28          1           0       -6.362069   -2.702788   -3.959796
     29          6           0       -3.718369   -3.560124   -5.906521
     30          1           0       -2.661199   -3.342673   -6.037829
     31          6           0       -6.411541   -4.164453   -5.535014
     32          1           0       -7.458639   -4.403511   -5.376002
     33          6           0       -4.333330   -4.519897   -6.718527
     34          1           0       -3.746271   -5.060148   -7.457089
     35          6           0       -5.687684   -4.822398   -6.535037
     36          1           0       -6.164170   -5.588614   -7.140331
     37          7           0       -2.948929    1.012196   -3.002481
     38          1           0       -3.729776    0.774471   -2.391934
     39          6           0       -1.861463    1.674291   -2.297153
     40          1           0       -0.922542    1.178548   -2.568024
     41          6           0       -2.161623    1.446568   -0.803760
     42          6           0       -1.765992    3.165742   -2.645491
     43          1           0       -0.936733    3.636002   -2.108138
     44          1           0       -2.692982    3.680300   -2.374070
     45          1           0       -1.594219    3.278758   -3.719049
     46          8           0       -3.279396    1.067407   -0.442208
     47          7           0       -1.144119    1.704241    0.030545
     48          1           0       -0.217498    1.953492   -0.306008
     49          6           0       -1.194971    1.459400    1.463774
     50          1           0       -2.097328    1.923532    1.877822
     51          6           0        0.069513    2.127813    2.023919
     52          6           0       -1.223605   -0.062196    1.740596
     53          1           0       -0.309090   -0.506459    1.338677
     54          1           0       -2.059043   -0.470858    1.167360
     55          8           0        1.038974    2.334007    1.293521
     56          6           0       -1.384281   -0.447738    3.210026
     57          1           0       -0.491058   -0.210207    3.801841
     58          1           0       -2.229989    0.077329    3.676422
     59          6           0       -1.630473   -1.930849    3.360792
     60          8           0       -1.606051   -2.755564    2.459119
     61          8           0       -1.879271   -2.260973    4.649850
     62          7           0        0.054669    2.447999    3.343414
     63          1           0       -0.698890    2.065526    3.900361
     64          6           0        1.312681    2.692324    4.062001
     65          1           0        1.873669    3.428037    3.481053
     66          6           0        2.087464    1.359853    4.143272
     67          6           0        1.004373    3.213722    5.462150
     68          1           0        1.934339    3.450724    5.987530
     69          1           0        0.479845    2.444861    6.039256
     70          1           0        0.388622    4.117109    5.414709
     71          8           0        1.531956    0.358253    4.614245
     72          7           0        3.335833    1.390409    3.651105
     73          1           0        3.769283    2.265462    3.373753
     74          6           0        4.236135    0.251636    3.565000
     75          1           0        3.973453   -0.457425    4.353749
     76          6           0        5.658572    0.800616    3.775364
     77          6           0        4.173048   -0.431132    2.177794
     78          1           0        4.480444    0.319046    1.436824
     79          1           0        4.928977   -1.226635    2.152265
     80          8           0        5.880504    2.017821    3.674885
     81          6           0        2.809647   -1.012033    1.777371
     82          1           0        2.065401   -0.215042    1.887016
     83          6           0        2.833248   -1.417834    0.298007
     84          1           0        3.583308   -2.197776    0.116706
     85          1           0        3.074409   -0.563071   -0.345409
     86          1           0        1.859899   -1.816699   -0.013710
     87          6           0        2.399847   -2.194342    2.662498
     88          1           0        3.156378   -2.988467    2.622050
     89          1           0        1.450832   -2.622125    2.322386
     90          1           0        2.270729   -1.884534    3.702580
     91          7           0        6.583276   -0.133615    4.011504
     92          1           0        6.398185   -1.146129    3.938862
     93          6           0        8.016965    0.058874    3.893115
     94          1           0        8.235041    0.610943    2.968157
     95          6           0        8.644933   -1.396623    3.788139
     96          6           0        8.588968    0.849546    5.076019
     97          1           0        8.537671    0.222975    5.977540
     98          1           0        7.933748    1.721930    5.236427
     99          8           0        9.893082   -1.452194    3.841703
    100          6           0       10.039847    1.269009    4.809817
    101          1           0       10.077604    2.068278    4.058034
    102          1           0       10.542048    0.382403    4.401564
    103          6           0       10.764741    1.712368    6.070451
    104          1           0       11.767982    2.092853    5.845619
    105          1           0       10.846536    0.869196    6.768589
    106          7           0        9.998839    2.797755    6.727154
    107          1           0        9.038211    2.891742    6.412977
    108          7           0       11.567349    3.258857    8.366156
    109          1           0       12.041538    3.969387    8.904078
    110          1           0       12.104440    2.448190    8.094255
    111          7           0        9.698048    4.608329    8.155126
    112          1           0        8.838145    4.846908    7.681097
    113          1           0        9.782585    4.922215    9.111715
    114          6           0       10.411265    3.537335    7.738151
    115          8           0        7.796543   -2.315137    3.673211
    116          1           0       -1.988623   -3.230292    4.666862
 ---------------------------------------------------------------------

 SCF Done:  E(RB3LYP) =  -2782.48875985     A.U. after    1 cycles

 Alpha  occ. eigenvalues --  -19.28853 -19.24791 -19.23299 -19.20598 -19.18680
 Alpha  occ. eigenvalues --  -19.18080 -19.17699 -19.14961 -19.13136 -19.05926
 Alpha  occ. eigenvalues --  -19.05351 -14.57390 -14.49770 -14.49676 -14.48923
 Alpha  occ. eigenvalues --  -14.48241 -14.44192 -14.42374 -14.41986 -14.39195
 Alpha  occ. eigenvalues --  -14.35307 -10.45669 -10.42063 -10.38793 -10.38336
 Alpha  occ. eigenvalues --  -10.37777 -10.36043 -10.35659 -10.34868 -10.33943
 Alpha  occ. eigenvalues --  -10.32219 -10.30979 -10.30819 -10.30111 -10.29938
 Alpha  occ. eigenvalues --  -10.29916 -10.29835 -10.29772 -10.29613 -10.29592
 Alpha  occ. eigenvalues --  -10.29540 -10.29288 -10.29136 -10.28362 -10.25282
 Alpha  occ. eigenvalues --  -10.25040 -10.24211 -10.24175 -10.23991 -10.23515
 Alpha  occ. eigenvalues --  -10.22158 -10.21643 -10.21487 -10.20669 -10.20534
 Alpha  occ. eigenvalues --  -10.19558 -10.18327  -1.17874  -1.16172  -1.14350
 Alpha  occ. eigenvalues --   -1.13977  -1.12699  -1.11571  -1.10759  -1.09825
 Alpha  occ. eigenvalues --   -1.06635  -1.05145  -1.04798  -1.04508  -1.03236
 Alpha  occ. eigenvalues --   -1.02730  -1.00969  -0.99228  -0.99207  -0.98305
 Alpha  occ. eigenvalues --   -0.96227  -0.95575  -0.92737  -0.92343  -0.90355
 Alpha  occ. eigenvalues --   -0.89402  -0.86494  -0.85645  -0.85359  -0.84925
 Alpha  occ. eigenvalues --   -0.83970  -0.83309  -0.82264  -0.82030  -0.79056
 Alpha  occ. eigenvalues --   -0.78366  -0.77388  -0.77035  -0.75868  -0.75442
 Alpha  occ. eigenvalues --   -0.73171  -0.72486  -0.72046  -0.71290  -0.71087
 Alpha  occ. eigenvalues --   -0.70583  -0.70078  -0.69882  -0.69747  -0.69646
 Alpha  occ. eigenvalues --   -0.68639  -0.68172  -0.67453  -0.66086  -0.65646
 Alpha  occ. eigenvalues --   -0.65089  -0.64226  -0.63894  -0.63079  -0.62865
 Alpha  occ. eigenvalues --   -0.62509  -0.62399  -0.62319  -0.61381  -0.61294
 Alpha  occ. eigenvalues --   -0.60085  -0.59002  -0.58622  -0.58199  -0.58150
 Alpha  occ. eigenvalues --   -0.57670  -0.57388  -0.56312  -0.56246  -0.55622
 Alpha  occ. eigenvalues --   -0.55538  -0.55071  -0.54580  -0.54297  -0.53960
 Alpha  occ. eigenvalues --   -0.53615  -0.53341  -0.52953  -0.52369  -0.52266
 Alpha  occ. eigenvalues --   -0.52007  -0.51929  -0.51654  -0.51252  -0.51217
 Alpha  occ. eigenvalues --   -0.50946  -0.50467  -0.50226  -0.50077  -0.49570
 Alpha  occ. eigenvalues --   -0.49327  -0.49024  -0.48688  -0.48222  -0.47992
 Alpha  occ. eigenvalues --   -0.47490  -0.47305  -0.46944  -0.46727  -0.46406
 Alpha  occ. eigenvalues --   -0.46252  -0.46209  -0.46025  -0.45395  -0.45309
 Alpha  occ. eigenvalues --   -0.45029  -0.44734  -0.44312  -0.44199  -0.44103
 Alpha  occ. eigenvalues --   -0.43928  -0.43580  -0.43523  -0.43048  -0.42682
 Alpha  occ. eigenvalues --   -0.41884  -0.41669  -0.41557  -0.41355  -0.41281
 Alpha  occ. eigenvalues --   -0.41008  -0.40586  -0.40263  -0.39945  -0.39749
 Alpha  occ. eigenvalues --   -0.39576  -0.39414  -0.39068  -0.38845  -0.38353
 Alpha  occ. eigenvalues --   -0.38104  -0.37661  -0.36997  -0.36759  -0.35491
 Alpha  occ. eigenvalues --   -0.35475  -0.35418  -0.35369  -0.34588  -0.34427
 Alpha  occ. eigenvalues --   -0.34266  -0.34218  -0.34157  -0.33504  -0.33190
 Alpha  occ. eigenvalues --   -0.32587  -0.31822  -0.31382  -0.31314  -0.29012
 Alpha  occ. eigenvalues --   -0.28282  -0.27044  -0.26272  -0.21278  -0.20795
 Alpha  occ. eigenvalues --   -0.19630
 Alpha virt. eigenvalues --   -0.12325  -0.11234  -0.10742  -0.09899  -0.06459
 Alpha virt. eigenvalues --   -0.06192  -0.05952  -0.04756  -0.04007  -0.03760
 Alpha virt. eigenvalues --   -0.03329  -0.02798  -0.01950  -0.01348  -0.01045

 Mulliken charges:
               1
     1  N   -0.754219
     2  H    0.409004
     3  H    0.416457
     4  H    0.420032
     5  C   -0.117660
     6  H    0.204657
     7  C    0.657674
     8  C    0.132610
     9  H    0.168237
    10  O   -0.536904
    11  C   -0.483755
    12  H    0.185813
    13  H    0.182684
    14  H    0.180699
    15  O   -0.648148
    16  H    0.429251
    17  N   -0.599415
    18  H    0.364405
    19  C   -0.064961
    20  H    0.199654
    21  C    0.632123
    22  C   -0.371708
    23  H    0.183515
    24  H    0.189497
    25  O   -0.547716
    26  C    0.163325
    27  C   -0.140385
    28  H    0.158185
    29  C   -0.186193
    30  H    0.150440
    31  C   -0.127868
    32  H    0.163833
    33  C   -0.201801
    34  H    0.161230
    35  C   -0.170759
    36  H    0.161117
    37  N   -0.612528
    38  H    0.362472
    39  C   -0.050644
    40  H    0.185080
    41  C    0.630393
    42  C   -0.445729
    43  H    0.167296
    44  H    0.164837
    45  H    0.180853
    46  O   -0.550386
    47  N   -0.626453
    48  H    0.362046
    49  C   -0.050969
    50  H    0.171849
    51  C    0.628906
    52  C   -0.269982
    53  H    0.180487
    54  H    0.188052
    55  O   -0.536888
    56  C   -0.419903
    57  H    0.243292
    58  H    0.162200
    59  C    0.599127
    60  O   -0.476451
    61  O   -0.563777
    62  N   -0.592495
    63  H    0.340586
    64  C   -0.048056
    65  H    0.170010
    66  C    0.632570
    67  C   -0.475097
    68  H    0.166125
    69  H    0.174385
    70  H    0.162229
    71  O   -0.550964
    72  N   -0.581132
    73  H    0.348156
    74  C   -0.076523
    75  H    0.181438
    76  C    0.613873
    77  C   -0.259042
    78  H    0.136935
    79  H    0.166342
    80  O   -0.587052
    81  C   -0.076159
    82  H    0.133684
    83  C   -0.449105
    84  H    0.148949
    85  H    0.134766
    86  H    0.131242
    87  C   -0.476093
    88  H    0.143374
    89  H    0.142407
    90  H    0.172699
    91  N   -0.619473
    92  H    0.362502
    93  C   -0.056943
    94  H    0.143602
    95  C    0.582714
    96  C   -0.286045
    97  H    0.139775
    98  H    0.126589
    99  O   -0.589753
   100  C   -0.322163
   101  H    0.141483
   102  H    0.247748
   103  C   -0.169370
   104  H    0.170745
   105  H    0.189485
   106  N   -0.587458
   107  H    0.369660
   108  N   -0.755381
   109  H    0.378553
   110  H    0.395037
   111  N   -0.760135
   112  H    0.380818
   113  H    0.375862
   114  C    0.810677
   115  O   -0.595933
   116  H    0.413224
 Sum of Mulliken charges =   1.00000

 Dipole moment (field-independent basis, Debye):
    X=             -7.1293    Y=             13.0347    Z=            -12.7030  Tot=             19.5473
 Quadrupole moment (field-independent basis, Debye-Ang):
   XX=            -47.2340   YY=           -267.2816   ZZ=            165.6491
   XY=            215.3284   XZ=            379.3158   YZ=            183.2564

 Normal termination of Gaussian 16 at Sat Jul 16 15:20:51 2022.
