 Gaussian 16, Revision C.01,
 Gaussian 16:  ES64L-G16RevC.01  3-Jul-2019

 ----------------------------------------------------------------------
 # B3LYP/6-31G* empiricaldispersion=gd3bj guess=read geom=check nosymm
 integral(ultrafinegrid)
 ----------------------------------------------------------------------

 ------------------------------------------------------
 Candidate Structure: Conf:112 Charge calc in gas phase
 ------------------------------------------------------
 Structure from the checkpoint file:  "conf-112.chk"
 Charge =  1 Multiplicity = 1

                          Input orientation:
 ---------------------------------------------------------------------
 Center     Atomic      Atomic             Coordinates (Angstroms)
 Number     Number       Type             X           Y           Z
 ---------------------------------------------------------------------
      1          7           0       -3.300647   -3.402409    1.578744
      2          1           0       -3.685152   -2.698988    2.214566
      3          1           0       -4.047609   -3.677113    0.896191
      4          1           0       -2.919405   -4.199295    2.117084
      5          6           0       -2.196964   -2.871020    0.708762
      6          1           0       -1.703142   -2.045941    1.223394
      7          6           0       -2.911885   -2.438815   -0.583885
      8          6           0       -1.213394   -4.053374    0.466460
      9          1           0       -1.701522   -4.754147   -0.220534
     10          8           0       -4.020834   -2.939126   -0.819980
     11          6           0        0.122505   -3.600777   -0.102198
     12          1           0        0.003418   -3.102253   -1.068202
     13          1           0        0.767668   -4.471201   -0.247864
     14          1           0        0.620940   -2.899665    0.577581
     15          8           0       -1.081315   -4.770940    1.695817
     16          1           0       -0.306370   -4.436898    2.178067
     17          7           0       -2.244613   -1.599988   -1.363326
     18          1           0       -1.321590   -1.243971   -1.115543
     19          6           0       -2.694300   -1.165816   -2.677625
     20          1           0       -3.102206   -2.029347   -3.212932
     21          6           0       -1.410936   -0.673142   -3.376972
     22          6           0       -3.805259   -0.084434   -2.552486
     23          1           0       -4.554978   -0.501525   -1.872081
     24          1           0       -3.386069    0.800835   -2.065744
     25          8           0       -0.345011   -0.634750   -2.747453
     26          6           0       -4.448484    0.251301   -3.877847
     27          6           0       -4.179839    1.460782   -4.530858
     28          1           0       -3.518722    2.190693   -4.076493
     29          6           0       -5.282130   -0.685417   -4.507211
     30          1           0       -5.508003   -1.623750   -4.004811
     31          6           0       -4.718767    1.723713   -5.791478
     32          1           0       -4.481830    2.660220   -6.286386
     33          6           0       -5.827424   -0.421799   -5.762881
     34          1           0       -6.473748   -1.155148   -6.236005
     35          6           0       -5.543169    0.783382   -6.410007
     36          1           0       -5.962860    0.986576   -7.390613
     37          7           0       -1.536484   -0.303011   -4.663432
     38          1           0       -2.475001   -0.217233   -5.038846
     39          6           0       -0.484945    0.442122   -5.378913
     40          1           0        0.464590   -0.057090   -5.169727
     41          6           0       -0.485275    1.868711   -4.788254
     42          6           0       -0.790270    0.449786   -6.869118
     43          1           0        0.004960    0.968562   -7.411149
     44          1           0       -1.725804    0.984783   -7.056358
     45          1           0       -0.867105   -0.571988   -7.251904
     46          8           0       -1.267695    2.729382   -5.181742
     47          7           0        0.378746    2.046781   -3.757225
     48          1           0        0.830745    1.229627   -3.356113
     49          6           0        0.185935    3.134201   -2.809388
     50          1           0       -0.003261    4.053940   -3.369309
     51          6           0        1.451594    3.221220   -1.961584
     52          6           0       -1.012076    2.789327   -1.898585
     53          1           0       -0.784616    1.837100   -1.412157
     54          1           0       -1.873329    2.622160   -2.551574
     55          8           0        2.008492    2.196466   -1.570469
     56          6           0       -1.370176    3.831153   -0.843068
     57          1           0       -0.521463    4.076002   -0.187661
     58          1           0       -1.692230    4.777977   -1.293133
     59          6           0       -2.477544    3.328724    0.049713
     60          8           0       -2.874138    2.177383    0.116066
     61          8           0       -2.989419    4.310106    0.815818
     62          7           0        1.873110    4.464385   -1.624356
     63          1           0        1.294383    5.257663   -1.865401
     64          6           0        2.872100    4.646637   -0.572927
     65          1           0        3.783058    4.127164   -0.885736
     66          6           0        2.325921    4.023129    0.726859
     67          6           0        3.144042    6.134778   -0.370643
     68          1           0        3.930567    6.275804    0.375932
     69          1           0        2.238995    6.632634   -0.007660
     70          1           0        3.468830    6.601179   -1.306063
     71          8           0        1.234115    4.382151    1.178234
     72          7           0        3.113683    3.096613    1.293411
     73          1           0        3.983136    2.806480    0.857151
     74          6           0        2.762475    2.314165    2.462705
     75          1           0        2.211664    2.951591    3.159755
     76          6           0        4.091888    1.847523    3.077517
     77          6           0        1.930660    1.063574    2.094084
     78          1           0        2.498086    0.517907    1.329988
     79          1           0        1.879682    0.415312    2.980791
     80          8           0        5.094585    1.723819    2.370392
     81          6           0        0.504458    1.332651    1.590199
     82          1           0        0.564446    2.027813    0.750022
     83          6           0       -0.107616    0.033510    1.053297
     84          1           0       -0.123834   -0.734480    1.842829
     85          1           0        0.475612   -0.351585    0.207541
     86          1           0       -1.134836    0.219105    0.716324
     87          6           0       -0.380747    1.953217    2.676079
     88          1           0       -0.366397    1.345869    3.591717
     89          1           0       -1.419045    2.021524    2.335558
     90          1           0       -0.044928    2.964183    2.918836
     91          7           0        4.040859    1.530555    4.382636
     92          1           0        3.217497    1.702431    4.951022
     93          6           0        5.153647    0.955988    5.125838
     94          1           0        5.643744    0.199098    4.509961
     95          6           0        4.594491    0.292483    6.397712
     96          6           0        6.178717    2.063088    5.489207
     97          1           0        5.608402    2.932280    5.844725
     98          1           0        6.654901    2.374523    4.555348
     99          8           0        5.202409   -0.686742    6.858619
    100          6           0        7.245261    1.664352    6.535026
    101          1           0        8.235325    2.000756    6.206001
    102          1           0        7.283997    0.574913    6.635130
    103          6           0        7.003626    2.295362    7.916135
    104          1           0        6.964251    3.385957    7.828507
    105          1           0        7.835539    2.082891    8.594642
    106          7           0        5.744841    1.886211    8.550515
    107          1           0        4.902239    2.113747    8.018742
    108          7           0        6.596124    0.235027    9.979433
    109          1           0        6.504437   -0.724051   10.280158
    110          1           0        7.538534    0.540178    9.792602
    111          7           0        4.319872    0.333788    9.462516
    112          1           0        3.748340    0.443841    8.587319
    113          1           0        4.223302   -0.559021    9.927730
    114          6           0        5.569325    0.790215    9.300950
    115          8           0        3.599554    0.912064    6.931401
    116          1           0       -3.673900    3.902502    1.379088
 ---------------------------------------------------------------------

 SCF Done:  E(RB3LYP) =  -2782.56308177     A.U. after    2 cycles

 Alpha  occ. eigenvalues --  -19.29644 -19.26652 -19.25408 -19.22086 -19.21456
 Alpha  occ. eigenvalues --  -19.18924 -19.18382 -19.17380 -19.16751 -19.14658
 Alpha  occ. eigenvalues --  -19.13394 -14.58626 -14.48357 -14.45953 -14.45377
 Alpha  occ. eigenvalues --  -14.44452 -14.43564 -14.42389 -14.42345 -14.41751
 Alpha  occ. eigenvalues --  -14.40712 -10.42365 -10.40856 -10.39468 -10.39010
 Alpha  occ. eigenvalues --  -10.38832 -10.38778 -10.35839 -10.35392 -10.34560
 Alpha  occ. eigenvalues --  -10.33975 -10.33860 -10.31667 -10.31185 -10.30536
 Alpha  occ. eigenvalues --  -10.30403 -10.30167 -10.30120 -10.29099 -10.27919
 Alpha  occ. eigenvalues --  -10.27250 -10.26619 -10.26517 -10.26280 -10.26168
 Alpha  occ. eigenvalues --  -10.26065 -10.25860 -10.25842 -10.25754 -10.25591
 Alpha  occ. eigenvalues --  -10.25162 -10.25049 -10.25006 -10.24860 -10.24825
 Alpha  occ. eigenvalues --  -10.24122 -10.23014  -1.18389  -1.17762  -1.16764
 Alpha  occ. eigenvalues --   -1.13923  -1.12411  -1.11267  -1.10183  -1.09865
 Alpha  occ. eigenvalues --   -1.09347  -1.08579  -1.08478  -1.07091  -1.05275
 Alpha  occ. eigenvalues --   -1.01973  -0.99823  -0.99529  -0.99359  -0.98688
 Alpha  occ. eigenvalues --   -0.98421  -0.97439  -0.96772  -0.93274  -0.92251
 Alpha  occ. eigenvalues --   -0.88470  -0.87880  -0.87356  -0.85557  -0.84761
 Alpha  occ. eigenvalues --   -0.84421  -0.84316  -0.81783  -0.81585  -0.81396
 Alpha  occ. eigenvalues --   -0.80029  -0.79113  -0.77004  -0.75465  -0.75164
 Alpha  occ. eigenvalues --   -0.73878  -0.73533  -0.73220  -0.73076  -0.71967
 Alpha  occ. eigenvalues --   -0.71501  -0.71302  -0.70779  -0.69339  -0.68236
 Alpha  occ. eigenvalues --   -0.67549  -0.66802  -0.66448  -0.66180  -0.65832
 Alpha  occ. eigenvalues --   -0.65442  -0.65242  -0.64522  -0.64357  -0.63809
 Alpha  occ. eigenvalues --   -0.63136  -0.63081  -0.62501  -0.61900  -0.61184
 Alpha  occ. eigenvalues --   -0.59972  -0.59347  -0.58510  -0.58234  -0.57767
 Alpha  occ. eigenvalues --   -0.57445  -0.57216  -0.57049  -0.56765  -0.56359
 Alpha  occ. eigenvalues --   -0.56063  -0.55916  -0.55462  -0.55262  -0.54811
 Alpha  occ. eigenvalues --   -0.54435  -0.54208  -0.53994  -0.53282  -0.53239
 Alpha  occ. eigenvalues --   -0.53036  -0.52687  -0.52437  -0.52104  -0.51821
 Alpha  occ. eigenvalues --   -0.51492  -0.51403  -0.50726  -0.50221  -0.50033
 Alpha  occ. eigenvalues --   -0.49964  -0.49818  -0.49737  -0.49674  -0.49631
 Alpha  occ. eigenvalues --   -0.49017  -0.48677  -0.48377  -0.48132  -0.47933
 Alpha  occ. eigenvalues --   -0.47764  -0.47127  -0.47030  -0.46886  -0.46666
 Alpha  occ. eigenvalues --   -0.46338  -0.46163  -0.45942  -0.45843  -0.45725
 Alpha  occ. eigenvalues --   -0.45507  -0.45503  -0.45043  -0.44573  -0.44332
 Alpha  occ. eigenvalues --   -0.43975  -0.43933  -0.43640  -0.43467  -0.43285
 Alpha  occ. eigenvalues --   -0.43229  -0.42922  -0.42690  -0.42435  -0.42082
 Alpha  occ. eigenvalues --   -0.41621  -0.41509  -0.41310  -0.40760  -0.40646
 Alpha  occ. eigenvalues --   -0.40514  -0.39810  -0.39601  -0.39122  -0.38926
 Alpha  occ. eigenvalues --   -0.38778  -0.38483  -0.38069  -0.36610  -0.36453
 Alpha  occ. eigenvalues --   -0.35849  -0.35084  -0.34100  -0.33643  -0.33523
 Alpha  occ. eigenvalues --   -0.32493  -0.32004  -0.31714  -0.31664  -0.31079
 Alpha  occ. eigenvalues --   -0.31038  -0.30643  -0.30315  -0.29976  -0.29180
 Alpha  occ. eigenvalues --   -0.26901
 Alpha virt. eigenvalues --   -0.11492  -0.09273  -0.08513  -0.07341  -0.07136
 Alpha virt. eigenvalues --   -0.06488  -0.06179  -0.05438  -0.04816  -0.04681
 Alpha virt. eigenvalues --   -0.03812  -0.03121  -0.02633  -0.02092  -0.01962

 Mulliken charges:
               1
     1  N   -0.746517
     2  H    0.415609
     3  H    0.423626
     4  H    0.423960
     5  C   -0.151133
     6  H    0.215204
     7  C    0.656066
     8  C    0.125823
     9  H    0.188361
    10  O   -0.545692
    11  C   -0.509271
    12  H    0.198472
    13  H    0.202551
    14  H    0.174177
    15  O   -0.629866
    16  H    0.423290
    17  N   -0.616428
    18  H    0.398606
    19  C   -0.073639
    20  H    0.198207
    21  C    0.632964
    22  C   -0.373358
    23  H    0.181802
    24  H    0.196670
    25  O   -0.558430
    26  C    0.111301
    27  C   -0.205419
    28  H    0.171041
    29  C   -0.185245
    30  H    0.139124
    31  C   -0.129248
    32  H    0.160757
    33  C   -0.127218
    34  H    0.147811
    35  C   -0.131488
    36  H    0.150621
    37  N   -0.598337
    38  H    0.368297
    39  C   -0.057118
    40  H    0.177618
    41  C    0.619107
    42  C   -0.474311
    43  H    0.178010
    44  H    0.184209
    45  H    0.162171
    46  O   -0.533607
    47  N   -0.596325
    48  H    0.370295
    49  C   -0.060317
    50  H    0.172839
    51  C    0.637548
    52  C   -0.296908
    53  H    0.175911
    54  H    0.175645
    55  O   -0.545888
    56  C   -0.413667
    57  H    0.248636
    58  H    0.177546
    59  C    0.612044
    60  O   -0.497648
    61  O   -0.552299
    62  N   -0.594189
    63  H    0.339242
    64  C   -0.029351
    65  H    0.169664
    66  C    0.643895
    67  C   -0.487995
    68  H    0.176791
    69  H    0.177028
    70  H    0.168530
    71  O   -0.558671
    72  N   -0.585628
    73  H    0.358249
    74  C   -0.065975
    75  H    0.170747
    76  C    0.621291
    77  C   -0.253050
    78  H    0.155310
    79  H    0.131385
    80  O   -0.550219
    81  C   -0.071872
    82  H    0.167813
    83  C   -0.505033
    84  H    0.108902
    85  H    0.172501
    86  H    0.159659
    87  C   -0.474772
    88  H    0.122518
    89  H    0.138721
    90  H    0.186172
    91  N   -0.619074
    92  H    0.345549
    93  C   -0.007026
    94  H    0.170645
    95  C    0.571170
    96  C   -0.294618
    97  H    0.132350
    98  H    0.181211
    99  O   -0.577522
   100  C   -0.274677
   101  H    0.151471
   102  H    0.185834
   103  C   -0.179432
   104  H    0.181183
   105  H    0.147123
   106  N   -0.574582
   107  H    0.372141
   108  N   -0.754406
   109  H    0.366203
   110  H    0.367492
   111  N   -0.737769
   112  H    0.400894
   113  H    0.336219
   114  C    0.769020
   115  O   -0.649726
   116  H    0.412121
 Sum of Mulliken charges =   1.00000

 Dipole moment (field-independent basis, Debye):
    X=             -1.6307    Y=             -5.8708    Z=             10.8533  Tot=             12.4467
 Quadrupole moment (field-independent basis, Debye-Ang):
   XX=           -229.6763   YY=           -272.6785   ZZ=           -163.5063
   XY=             43.2407   XZ=             89.6922   YZ=            -12.4443

 Normal termination of Gaussian 16 at Sat Jul 16 15:21:49 2022.
