 Gaussian 16, Revision C.01,
 Gaussian 16:  ES64L-G16RevC.01  3-Jul-2019

 ----------------------------------------------------------------------
 # B3LYP/6-31G* empiricaldispersion=gd3bj guess=read geom=check nosymm
 integral(ultrafinegrid)
 ----------------------------------------------------------------------

 -----------------------------------------------------
 Candidate Structure: Conf:95 Charge calc in gas phase
 -----------------------------------------------------
 Structure from the checkpoint file:  "conf-95.chk"
 Charge =  1 Multiplicity = 1

                          Input orientation:
 ---------------------------------------------------------------------
 Center     Atomic      Atomic             Coordinates (Angstroms)
 Number     Number       Type             X           Y           Z
 ---------------------------------------------------------------------
      1          7           0       -6.437730   -4.210728   -2.467194
      2          1           0       -7.190290   -3.510721   -2.575080
      3          1           0       -6.390496   -4.744566   -3.358794
      4          1           0       -6.583718   -4.818338   -1.648240
      5          6           0       -5.095566   -3.552289   -2.345012
      6          1           0       -5.205948   -2.649363   -1.742110
      7          6           0       -4.716818   -3.240336   -3.798608
      8          6           0       -4.141885   -4.560210   -1.670437
      9          1           0       -3.980523   -5.390985   -2.366834
     10          8           0       -5.127156   -4.007014   -4.676704
     11          6           0       -2.812806   -3.915014   -1.307263
     12          1           0       -2.305246   -3.537445   -2.200430
     13          1           0       -2.164321   -4.649618   -0.822770
     14          1           0       -2.967544   -3.066306   -0.629898
     15          8           0       -4.826472   -5.133212   -0.553304
     16          1           0       -4.621033   -4.611864    0.240158
     17          7           0       -3.993023   -2.137585   -3.969095
     18          1           0       -3.780060   -1.565498   -3.147083
     19          6           0       -3.863188   -1.492587   -5.261808
     20          1           0       -3.936597   -2.270233   -6.027055
     21          6           0       -2.464344   -0.852122   -5.279262
     22          6           0       -5.016948   -0.450160   -5.437843
     23          1           0       -4.725805    0.462187   -4.907740
     24          1           0       -5.115755   -0.210446   -6.503348
     25          8           0       -1.583675   -1.259345   -4.529716
     26          6           0       -6.335474   -0.956943   -4.898276
     27          6           0       -7.171596   -1.778170   -5.664774
     28          1           0       -6.896891   -2.013426   -6.689200
     29          6           0       -6.699588   -0.678332   -3.574098
     30          1           0       -6.051535   -0.056678   -2.963274
     31          6           0       -8.340164   -2.314305   -5.125538
     32          1           0       -8.978195   -2.943109   -5.739065
     33          6           0       -7.871158   -1.210386   -3.026105
     34          1           0       -8.155149   -0.955838   -2.007906
     35          6           0       -8.696835   -2.033740   -3.801946
     36          1           0       -9.625690   -2.421822   -3.392212
     37          7           0       -2.275282    0.216766   -6.105401
     38          1           0       -3.103433    0.618833   -6.524392
     39          6           0       -1.274309    1.193777   -5.683277
     40          1           0       -0.290157    0.720058   -5.729785
     41          6           0       -1.582751    1.576697   -4.217058
     42          6           0       -1.318544    2.423543   -6.590310
     43          1           0       -0.553428    3.145142   -6.291312
     44          1           0       -2.293913    2.918568   -6.519754
     45          1           0       -1.137818    2.139145   -7.631049
     46          8           0       -2.738525    1.552430   -3.779916
     47          7           0       -0.522884    1.925129   -3.469272
     48          1           0        0.421626    1.950295   -3.840419
     49          6           0       -0.643831    2.299474   -2.072942
     50          1           0       -1.607946    2.791931   -1.930259
     51          6           0        0.524053    3.233558   -1.752318
     52          6           0       -0.521019    1.076530   -1.130182
     53          1           0       -0.600087    1.416004   -0.093711
     54          1           0        0.490550    0.673277   -1.240916
     55          8           0        1.577358    3.145927   -2.377482
     56          6           0       -1.501142   -0.064375   -1.412639
     57          1           0       -1.372614   -0.470133   -2.420364
     58          1           0       -1.278794   -0.894386   -0.726738
     59          6           0       -2.966951    0.229880   -1.241151
     60          8           0       -3.871428   -0.519158   -1.601854
     61          8           0       -3.229129    1.362228   -0.579317
     62          7           0        0.324279    4.088846   -0.711142
     63          1           0       -0.483185    3.886051   -0.131869
     64          6           0        1.484045    4.550278    0.052405
     65          1           0        2.242911    4.853162   -0.671744
     66          6           0        1.980801    3.350790    0.882890
     67          6           0        1.098819    5.716950    0.960431
     68          1           0        1.974364    6.073727    1.511170
     69          1           0        0.347994    5.398594    1.692166
     70          1           0        0.693685    6.544244    0.370853
     71          8           0        1.164183    2.585857    1.403044
     72          7           0        3.315435    3.211821    0.968807
     73          1           0        3.944171    3.919073    0.602846
     74          6           0        3.972237    2.145140    1.702079
     75          1           0        3.267910    1.769116    2.448272
     76          6           0        5.205959    2.763001    2.372186
     77          6           0        4.432197    1.004968    0.764134
     78          1           0        5.173887    1.429414    0.075068
     79          1           0        4.958786    0.253615    1.368281
     80          8           0        5.740315    3.767581    1.895253
     81          6           0        3.318801    0.320370   -0.045470
     82          1           0        2.774884    1.102585   -0.592121
     83          6           0        3.942301   -0.624250   -1.081235
     84          1           0        4.511622   -1.424402   -0.591598
     85          1           0        4.623911   -0.089166   -1.752063
     86          1           0        3.167685   -1.097418   -1.696269
     87          6           0        2.329685   -0.431077    0.854320
     88          1           0        2.851346   -1.179155    1.465297
     89          1           0        1.588130   -0.966624    0.247670
     90          1           0        1.788988    0.253002    1.513085
     91          7           0        5.664020    2.100227    3.449539
     92          1           0        5.209286    1.260100    3.793771
     93          6           0        6.923514    2.407303    4.107840
     94          1           0        7.621602    2.764880    3.349128
     95          6           0        7.429920    1.092731    4.717991
     96          6           0        6.751346    3.485703    5.221899
     97          1           0        7.320404    3.190194    6.112777
     98          1           0        5.700239    3.460870    5.522365
     99          8           0        8.738175    0.989352    4.899043
    100          6           0        7.157531    4.910321    4.787335
    101          1           0        6.437391    5.642618    5.172558
    102          1           0        7.120457    4.982401    3.695607
    103          6           0        8.547690    5.320230    5.300657
    104          1           0        8.525042    5.448690    6.387857
    105          1           0        8.835038    6.287741    4.878541
    106          7           0        9.609039    4.341024    5.033508
    107          1           0        9.554995    3.511164    5.613159
    108          7           0       10.151326    5.067331    2.892555
    109          1           0       10.525049    4.856182    1.977935
    110          1           0       10.497169    5.929439    3.293469
    111          7           0       10.124821    2.750555    3.449326
    112          1           0        9.279841    1.644807    4.324570
    113          1           0       10.556957    2.592924    2.541610
    114          6           0        9.987110    4.004947    3.751957
    115          8           0        6.640429    0.234476    5.067640
    116          1           0       -4.199500    1.458045   -0.537646
 ---------------------------------------------------------------------

 SCF Done:  E(RB3LYP) =  -2782.56613084     A.U. after    3 cycles

 Alpha  occ. eigenvalues --  -19.30003 -19.28176 -19.24660 -19.23700 -19.21255
 Alpha  occ. eigenvalues --  -19.20340 -19.20189 -19.19907 -19.17757 -19.17242
 Alpha  occ. eigenvalues --  -19.16556 -14.56922 -14.46588 -14.44880 -14.44427
 Alpha  occ. eigenvalues --  -14.43389 -14.42159 -14.41988 -14.41264 -14.40805
 Alpha  occ. eigenvalues --  -14.36517 -10.42769 -10.40653 -10.38237 -10.37289
 Alpha  occ. eigenvalues --  -10.37263 -10.37173 -10.36589 -10.35696 -10.34962
 Alpha  occ. eigenvalues --  -10.34853 -10.34277 -10.33689 -10.32190 -10.31327
 Alpha  occ. eigenvalues --  -10.30143 -10.29841 -10.29615 -10.29472 -10.29300
 Alpha  occ. eigenvalues --  -10.29243 -10.29070 -10.28966 -10.28948 -10.28858
 Alpha  occ. eigenvalues --  -10.28498 -10.28049 -10.27869 -10.27225 -10.27152
 Alpha  occ. eigenvalues --  -10.25216 -10.24347 -10.24192 -10.24084 -10.23458
 Alpha  occ. eigenvalues --  -10.22390 -10.22127  -1.21128  -1.16791  -1.15272
 Alpha  occ. eigenvalues --   -1.13707  -1.12190  -1.12087  -1.11650  -1.11429
 Alpha  occ. eigenvalues --   -1.10948  -1.09796  -1.08856  -1.04924  -1.04218
 Alpha  occ. eigenvalues --   -1.04046  -1.01725  -1.00994  -1.00155  -0.98744
 Alpha  occ. eigenvalues --   -0.97923  -0.95823  -0.95467  -0.91611  -0.91348
 Alpha  occ. eigenvalues --   -0.89276  -0.88727  -0.86769  -0.86140  -0.84751
 Alpha  occ. eigenvalues --   -0.84562  -0.84509  -0.84104  -0.81951  -0.81442
 Alpha  occ. eigenvalues --   -0.80589  -0.78209  -0.76821  -0.75210  -0.74651
 Alpha  occ. eigenvalues --   -0.73287  -0.73130  -0.72723  -0.72171  -0.71684
 Alpha  occ. eigenvalues --   -0.70942  -0.70188  -0.69985  -0.69477  -0.69050
 Alpha  occ. eigenvalues --   -0.68417  -0.68132  -0.67728  -0.67172  -0.66112
 Alpha  occ. eigenvalues --   -0.65113  -0.64408  -0.64181  -0.63987  -0.63241
 Alpha  occ. eigenvalues --   -0.63045  -0.62411  -0.61504  -0.61084  -0.60885
 Alpha  occ. eigenvalues --   -0.60385  -0.59990  -0.59346  -0.58579  -0.58441
 Alpha  occ. eigenvalues --   -0.57968  -0.57894  -0.57751  -0.57249  -0.56667
 Alpha  occ. eigenvalues --   -0.56216  -0.55842  -0.55593  -0.55433  -0.54904
 Alpha  occ. eigenvalues --   -0.54719  -0.54457  -0.54012  -0.53577  -0.53401
 Alpha  occ. eigenvalues --   -0.53024  -0.52712  -0.52543  -0.51963  -0.51814
 Alpha  occ. eigenvalues --   -0.51623  -0.51380  -0.50744  -0.50633  -0.50292
 Alpha  occ. eigenvalues --   -0.50190  -0.50098  -0.49817  -0.49403  -0.49361
 Alpha  occ. eigenvalues --   -0.49226  -0.49119  -0.48945  -0.48539  -0.48279
 Alpha  occ. eigenvalues --   -0.47906  -0.47749  -0.47546  -0.47263  -0.46876
 Alpha  occ. eigenvalues --   -0.46676  -0.46399  -0.46360  -0.46123  -0.45975
 Alpha  occ. eigenvalues --   -0.45707  -0.45645  -0.45388  -0.45334  -0.44934
 Alpha  occ. eigenvalues --   -0.44582  -0.44364  -0.44164  -0.43974  -0.43805
 Alpha  occ. eigenvalues --   -0.43559  -0.43404  -0.43082  -0.42755  -0.42334
 Alpha  occ. eigenvalues --   -0.42315  -0.41730  -0.41315  -0.41125  -0.40854
 Alpha  occ. eigenvalues --   -0.40316  -0.39853  -0.38881  -0.38444  -0.38062
 Alpha  occ. eigenvalues --   -0.38000  -0.37608  -0.37573  -0.37147  -0.36130
 Alpha  occ. eigenvalues --   -0.35379  -0.35018  -0.34816  -0.34301  -0.34292
 Alpha  occ. eigenvalues --   -0.33993  -0.33914  -0.33624  -0.33048  -0.32383
 Alpha  occ. eigenvalues --   -0.32258  -0.31529  -0.31218  -0.30414  -0.29891
 Alpha  occ. eigenvalues --   -0.29626
 Alpha virt. eigenvalues --   -0.11472  -0.10734  -0.09913  -0.09505  -0.08080
 Alpha virt. eigenvalues --   -0.06306  -0.06106  -0.05463  -0.03997  -0.03275
 Alpha virt. eigenvalues --   -0.03127  -0.02714  -0.02382  -0.01674  -0.01040

 Mulliken charges:
               1
     1  N   -0.750660
     2  H    0.408062
     3  H    0.416096
     4  H    0.412204
     5  C   -0.146900
     6  H    0.213682
     7  C    0.647332
     8  C    0.127111
     9  H    0.185812
    10  O   -0.548578
    11  C   -0.505611
    12  H    0.206773
    13  H    0.195059
    14  H    0.158254
    15  O   -0.629772
    16  H    0.415500
    17  N   -0.608063
    18  H    0.413710
    19  C   -0.065027
    20  H    0.214762
    21  C    0.627574
    22  C   -0.412523
    23  H    0.204193
    24  H    0.164082
    25  O   -0.517047
    26  C    0.154830
    27  C   -0.147392
    28  H    0.152187
    29  C   -0.185265
    30  H    0.160588
    31  C   -0.129054
    32  H    0.161076
    33  C   -0.185878
    34  H    0.150433
    35  C   -0.179721
    36  H    0.156992
    37  N   -0.584492
    38  H    0.342139
    39  C   -0.051474
    40  H    0.185699
    41  C    0.638669
    42  C   -0.480093
    43  H    0.180738
    44  H    0.166750
    45  H    0.182796
    46  O   -0.568379
    47  N   -0.602277
    48  H    0.357607
    49  C   -0.069868
    50  H    0.187226
    51  C    0.621227
    52  C   -0.279918
    53  H    0.193366
    54  H    0.178467
    55  O   -0.529312
    56  C   -0.416801
    57  H    0.240213
    58  H    0.187050
    59  C    0.654594
    60  O   -0.534757
    61  O   -0.543032
    62  N   -0.572838
    63  H    0.339062
    64  C   -0.074023
    65  H    0.183336
    66  C    0.632049
    67  C   -0.463173
    68  H    0.172286
    69  H    0.164931
    70  H    0.173736
    71  O   -0.554466
    72  N   -0.590196
    73  H    0.352384
    74  C   -0.077376
    75  H    0.179555
    76  C    0.626801
    77  C   -0.253486
    78  H    0.146846
    79  H    0.146085
    80  O   -0.549976
    81  C   -0.082038
    82  H    0.144316
    83  C   -0.444237
    84  H    0.146274
    85  H    0.147270
    86  H    0.134290
    87  C   -0.469810
    88  H    0.139473
    89  H    0.120735
    90  H    0.183055
    91  N   -0.614758
    92  H    0.353542
    93  C   -0.058664
    94  H    0.185943
    95  C    0.579024
    96  C   -0.282086
    97  H    0.150033
    98  H    0.164635
    99  O   -0.612310
   100  C   -0.282093
   101  H    0.143630
   102  H    0.192180
   103  C   -0.159329
   104  H    0.164065
   105  H    0.152302
   106  N   -0.579369
   107  H    0.339589
   108  N   -0.739852
   109  H    0.340984
   110  H    0.347943
   111  N   -0.737066
   112  H    0.466185
   113  H    0.294516
   114  C    0.661499
   115  O   -0.481644
   116  H    0.419279
 Sum of Mulliken charges =   1.00000

 Dipole moment (field-independent basis, Debye):
    X=            -14.5977    Y=              1.0926    Z=             -9.9357  Tot=             17.6920
 Quadrupole moment (field-independent basis, Debye-Ang):
   XX=           -109.7048   YY=           -245.1015   ZZ=           -279.3052
   XY=            134.7260   XZ=             62.6177   YZ=             39.8448

 Normal termination of Gaussian 16 at Sat Jul 16 15:22:21 2022.
