 Gaussian 16, Revision C.01,
 Gaussian 16:  ES64L-G16RevC.01  3-Jul-2019

 ----------------------------------------------------------------------
 # B3LYP/6-31G* empiricaldispersion=gd3bj guess=read geom=check nosymm
 integral(ultrafinegrid)
 ----------------------------------------------------------------------

 ------------------------------------------------------
 Candidate Structure: Conf:684 Charge calc in gas phase
 ------------------------------------------------------
 Structure from the checkpoint file:  "conf-684.chk"
 Charge =  1 Multiplicity = 1

                          Input orientation:
 ---------------------------------------------------------------------
 Center     Atomic      Atomic             Coordinates (Angstroms)
 Number     Number       Type             X           Y           Z
 ---------------------------------------------------------------------
      1          7           0       -8.599160   -0.938915   -6.475214
      2          1           0       -9.274434   -1.623532   -6.125733
      3          1           0       -8.543032   -0.143007   -5.792147
      4          1           0       -8.860165   -0.646873   -7.431393
      5          6           0       -7.191248   -1.467342   -6.518488
      6          1           0       -7.226645   -2.555687   -6.597229
      7          6           0       -6.562073   -0.960830   -5.201468
      8          6           0       -6.500637   -0.859260   -7.762201
      9          1           0       -6.276956    0.196288   -7.545360
     10          8           0       -7.127448   -0.021964   -4.625665
     11          6           0       -5.227056   -1.602246   -8.144629
     12          1           0       -4.465003   -1.541920   -7.362049
     13          1           0       -4.798946   -1.156063   -9.048119
     14          1           0       -5.445571   -2.654123   -8.355019
     15          8           0       -7.504301   -0.943434   -8.779412
     16          1           0       -7.183751   -0.511982   -9.587495
     17          7           0       -5.436382   -1.551880   -4.827728
     18          1           0       -4.992729   -2.291610   -5.375084
     19          6           0       -4.579881   -1.105278   -3.735124
     20          1           0       -4.667507   -0.020250   -3.635919
     21          6           0       -3.164004   -1.511504   -4.179806
     22          6           0       -4.985742   -1.784541   -2.398105
     23          1           0       -6.015912   -1.475744   -2.187358
     24          1           0       -4.990423   -2.867958   -2.559867
     25          8           0       -3.024767   -2.398976   -5.032954
     26          6           0       -4.065914   -1.427377   -1.255420
     27          6           0       -3.112681   -2.344688   -0.796046
     28          1           0       -3.074275   -3.338831   -1.236155
     29          6           0       -4.106519   -0.149153   -0.683764
     30          1           0       -4.850396    0.569549   -1.022490
     31          6           0       -2.218052   -1.994671    0.214856
     32          1           0       -1.478399   -2.702580    0.573241
     33          6           0       -3.206681    0.205112    0.322308
     34          1           0       -3.245444    1.200183    0.755625
     35          6           0       -2.261148   -0.716339    0.772215
     36          1           0       -1.557263   -0.450702    1.551814
     37          7           0       -2.158420   -0.873161   -3.574998
     38          1           0       -2.335369   -0.202448   -2.830055
     39          6           0       -0.772595   -1.316442   -3.659599
     40          1           0       -0.765986   -2.410278   -3.712570
     41          6           0       -0.118609   -0.826320   -2.362794
     42          6           0       -0.054192   -0.735226   -4.885283
     43          1           0        0.983263   -1.082556   -4.926685
     44          1           0       -0.053924    0.357627   -4.836749
     45          1           0       -0.567477   -1.057536   -5.794810
     46          8           0       -0.529051    0.206045   -1.822880
     47          7           0        0.903081   -1.561310   -1.888051
     48          1           0        1.210195   -2.378409   -2.398912
     49          6           0        1.577668   -1.242080   -0.624035
     50          1           0        0.800709   -0.866619    0.046064
     51          6           0        2.632363   -0.133497   -0.815962
     52          6           0        2.200316   -2.506345   -0.029515
     53          1           0        3.050151   -2.808032   -0.649935
     54          1           0        1.447068   -3.301702   -0.058446
     55          8           0        3.835835   -0.355417   -0.677868
     56          6           0        2.699193   -2.330415    1.407756
     57          1           0        3.256886   -3.219280    1.724635
     58          1           0        3.412391   -1.501863    1.497053
     59          6           0        1.588539   -2.112326    2.403454
     60          8           0        0.404343   -1.987885    2.143045
     61          8           0        2.053634   -2.054048    3.666243
     62          7           0        2.122748    1.087920   -1.090153
     63          1           0        1.110954    1.182529   -1.131120
     64          6           0        2.948030    2.296255   -1.058221
     65          1           0        3.954114    1.987513   -1.358608
     66          6           0        3.008363    2.822870    0.398719
     67          6           0        2.399095    3.350414   -2.008564
     68          1           0        3.016779    4.250017   -1.968172
     69          1           0        1.384441    3.642124   -1.719820
     70          1           0        2.386818    2.965999   -3.033019
     71          8           0        2.631345    3.953260    0.693888
     72          7           0        3.456240    1.904400    1.287807
     73          1           0        3.892421    1.044807    0.960881
     74          6           0        3.472876    2.100649    2.724583
     75          1           0        3.619283    3.164410    2.931743
     76          6           0        4.633350    1.255078    3.264516
     77          6           0        2.185429    1.585388    3.413791
     78          1           0        2.169508    0.497558    3.281563
     79          1           0        2.286913    1.762544    4.494057
     80          8           0        4.945056    0.198204    2.704960
     81          6           0        0.855070    2.180657    2.929572
     82          1           0        0.812915    2.071832    1.837105
     83          6           0       -0.308470    1.376633    3.526667
     84          1           0       -0.316972    1.455801    4.621636
     85          1           0       -0.238239    0.314043    3.266143
     86          1           0       -1.273018    1.752844    3.164744
     87          6           0        0.726183    3.668572    3.272479
     88          1           0        0.803505    3.822719    4.356945
     89          1           0       -0.247826    4.056307    2.951411
     90          1           0        1.497454    4.257133    2.770851
     91          7           0        5.216204    1.713987    4.385353
     92          1           0        4.869218    2.536964    4.872005
     93          6           0        6.158334    0.940766    5.182914
     94          1           0        5.767014   -0.074155    5.316034
     95          6           0        6.288693    1.599504    6.574839
     96          6           0        7.536079    0.801831    4.499615
     97          1           0        7.377200    0.215802    3.590003
     98          1           0        8.168492    0.211427    5.171132
     99          8           0        7.017003    1.038843    7.402899
    100          6           0        8.252717    2.107017    4.102596
    101          1           0        7.530091    2.827337    3.696215
    102          1           0        8.936880    1.879253    3.277139
    103          6           0        9.111155    2.794659    5.176850
    104          1           0        9.819147    3.477227    4.690595
    105          1           0        9.687023    2.030726    5.714139
    106          7           0        8.304715    3.552170    6.141381
    107          1           0        7.302520    3.609075    5.941659
    108          7           0        9.811836    3.457291    7.921069
    109          1           0        9.944193    3.144505    8.871654
    110          1           0       10.552284    3.229629    7.274910
    111          7           0        7.540736    3.887367    8.281477
    112          1           0        6.620166    3.515627    7.936640
    113          1           0        7.718637    3.852608    9.275541
    114          6           0        8.550593    3.600421    7.454893
    115          8           0        5.705338    2.744433    6.700619
    116          1           0        1.284724   -1.887583    4.243915
 ---------------------------------------------------------------------

 SCF Done:  E(RB3LYP) =  -2782.55741555     A.U. after    1 cycles

 Alpha  occ. eigenvalues --  -19.30584 -19.26544 -19.25035 -19.21939 -19.20461
 Alpha  occ. eigenvalues --  -19.19925 -19.17075 -19.14909 -19.14794 -19.12925
 Alpha  occ. eigenvalues --  -19.11234 -14.59526 -14.49476 -14.45232 -14.44975
 Alpha  occ. eigenvalues --  -14.44441 -14.42354 -14.40870 -14.40851 -14.38464
 Alpha  occ. eigenvalues --  -14.38397 -10.43621 -10.40712 -10.40063 -10.39028
 Alpha  occ. eigenvalues --  -10.38783 -10.37814 -10.37400 -10.34437 -10.34006
 Alpha  occ. eigenvalues --  -10.32328 -10.31912 -10.31675 -10.30989 -10.29768
 Alpha  occ. eigenvalues --  -10.29650 -10.28787 -10.28605 -10.27503 -10.26893
 Alpha  occ. eigenvalues --  -10.26402 -10.26376 -10.25761 -10.25640 -10.25482
 Alpha  occ. eigenvalues --  -10.25298 -10.24968 -10.24887 -10.24602 -10.24579
 Alpha  occ. eigenvalues --  -10.23664 -10.22279 -10.22216 -10.22018 -10.21577
 Alpha  occ. eigenvalues --  -10.21050 -10.19489  -1.19523  -1.17803  -1.16203
 Alpha  occ. eigenvalues --   -1.13978  -1.13277  -1.12417  -1.09053  -1.08172
 Alpha  occ. eigenvalues --   -1.07073  -1.06969  -1.06259  -1.06246  -1.05192
 Alpha  occ. eigenvalues --   -1.02153  -1.01061  -0.97679  -0.97641  -0.96786
 Alpha  occ. eigenvalues --   -0.95749  -0.95269  -0.94626  -0.93910  -0.92549
 Alpha  occ. eigenvalues --   -0.88902  -0.87109  -0.85324  -0.84886  -0.84520
 Alpha  occ. eigenvalues --   -0.83617  -0.82015  -0.81633  -0.80903  -0.79334
 Alpha  occ. eigenvalues --   -0.78797  -0.77647  -0.76783  -0.75511  -0.74553
 Alpha  occ. eigenvalues --   -0.74223  -0.71926  -0.71823  -0.71749  -0.71239
 Alpha  occ. eigenvalues --   -0.71160  -0.70087  -0.69692  -0.68909  -0.67297
 Alpha  occ. eigenvalues --   -0.67205  -0.66974  -0.66612  -0.65543  -0.65357
 Alpha  occ. eigenvalues --   -0.65090  -0.64157  -0.63813  -0.63667  -0.62846
 Alpha  occ. eigenvalues --   -0.61733  -0.61388  -0.60879  -0.59946  -0.59703
 Alpha  occ. eigenvalues --   -0.59523  -0.59225  -0.58589  -0.57846  -0.57589
 Alpha  occ. eigenvalues --   -0.57260  -0.56727  -0.56357  -0.56341  -0.55514
 Alpha  occ. eigenvalues --   -0.54877  -0.54788  -0.54665  -0.54344  -0.53888
 Alpha  occ. eigenvalues --   -0.53454  -0.53121  -0.52971  -0.52689  -0.52475
 Alpha  occ. eigenvalues --   -0.52307  -0.52155  -0.51908  -0.51800  -0.51331
 Alpha  occ. eigenvalues --   -0.51184  -0.50357  -0.50187  -0.50082  -0.49955
 Alpha  occ. eigenvalues --   -0.49186  -0.48914  -0.48568  -0.48383  -0.48232
 Alpha  occ. eigenvalues --   -0.47827  -0.47823  -0.47441  -0.47150  -0.46809
 Alpha  occ. eigenvalues --   -0.46515  -0.46319  -0.46081  -0.45951  -0.45460
 Alpha  occ. eigenvalues --   -0.45171  -0.44905  -0.44605  -0.44503  -0.44154
 Alpha  occ. eigenvalues --   -0.43944  -0.43422  -0.43232  -0.42928  -0.42824
 Alpha  occ. eigenvalues --   -0.42507  -0.42293  -0.42188  -0.41792  -0.41746
 Alpha  occ. eigenvalues --   -0.41618  -0.41519  -0.41264  -0.40876  -0.40766
 Alpha  occ. eigenvalues --   -0.40562  -0.40457  -0.40151  -0.40010  -0.39145
 Alpha  occ. eigenvalues --   -0.38933  -0.38687  -0.38082  -0.37339  -0.36916
 Alpha  occ. eigenvalues --   -0.36198  -0.35861  -0.35822  -0.35684  -0.35402
 Alpha  occ. eigenvalues --   -0.34968  -0.34916  -0.34167  -0.33464  -0.32187
 Alpha  occ. eigenvalues --   -0.31860  -0.31562  -0.30874  -0.30001  -0.29549
 Alpha  occ. eigenvalues --   -0.28994  -0.28192  -0.27883  -0.27466  -0.27281
 Alpha  occ. eigenvalues --   -0.25221
 Alpha virt. eigenvalues --   -0.12494  -0.10174  -0.08066  -0.07227  -0.06876
 Alpha virt. eigenvalues --   -0.06205  -0.06003  -0.04979  -0.04416  -0.04243
 Alpha virt. eigenvalues --   -0.04100  -0.02451  -0.01291  -0.01115  -0.00424

 Mulliken charges:
               1
     1  N   -0.748203
     2  H    0.416730
     3  H    0.425822
     4  H    0.430523
     5  C   -0.124551
     6  H    0.215804
     7  C    0.642945
     8  C    0.126794
     9  H    0.172125
    10  O   -0.536379
    11  C   -0.489019
    12  H    0.194232
    13  H    0.183484
    14  H    0.183141
    15  O   -0.647513
    16  H    0.434541
    17  N   -0.599557
    18  H    0.374092
    19  C   -0.072954
    20  H    0.195141
    21  C    0.629945
    22  C   -0.346764
    23  H    0.176603
    24  H    0.160564
    25  O   -0.562142
    26  C    0.148550
    27  C   -0.189175
    28  H    0.126328
    29  C   -0.206974
    30  H    0.129770
    31  C   -0.143236
    32  H    0.161335
    33  C   -0.120010
    34  H    0.146410
    35  C   -0.123388
    36  H    0.178948
    37  N   -0.604493
    38  H    0.380494
    39  C   -0.038403
    40  H    0.173347
    41  C    0.645466
    42  C   -0.445831
    43  H    0.163040
    44  H    0.173660
    45  H    0.178244
    46  O   -0.555106
    47  N   -0.617186
    48  H    0.341178
    49  C   -0.067042
    50  H    0.212855
    51  C    0.620683
    52  C   -0.288417
    53  H    0.168374
    54  H    0.147857
    55  O   -0.532476
    56  C   -0.388915
    57  H    0.190819
    58  H    0.252675
    59  C    0.594126
    60  O   -0.482009
    61  O   -0.550073
    62  N   -0.605959
    63  H    0.372357
    64  C   -0.073870
    65  H    0.189002
    66  C    0.621745
    67  C   -0.446492
    68  H    0.176441
    69  H    0.159263
    70  H    0.141070
    71  O   -0.527093
    72  N   -0.637545
    73  H    0.384539
    74  C   -0.045322
    75  H    0.168037
    76  C    0.614064
    77  C   -0.271280
    78  H    0.139449
    79  H    0.139727
    80  O   -0.549863
    81  C   -0.064691
    82  H    0.123480
    83  C   -0.468655
    84  H    0.141038
    85  H    0.148103
    86  H    0.136288
    87  C   -0.459788
    88  H    0.130398
    89  H    0.132361
    90  H    0.189795
    91  N   -0.620535
    92  H    0.352910
    93  C   -0.034746
    94  H    0.170443
    95  C    0.584102
    96  C   -0.271360
    97  H    0.174999
    98  H    0.156298
    99  O   -0.571847
   100  C   -0.309373
   101  H    0.159687
   102  H    0.155749
   103  C   -0.141079
   104  H    0.162002
   105  H    0.159332
   106  N   -0.585442
   107  H    0.370778
   108  N   -0.755864
   109  H    0.364249
   110  H    0.366750
   111  N   -0.747924
   112  H    0.410312
   113  H    0.338123
   114  C    0.772188
   115  O   -0.650483
   116  H    0.417301
 Sum of Mulliken charges =   1.00000

 Dipole moment (field-independent basis, Debye):
    X=            -18.4799    Y=             -3.7309    Z=            -21.7471  Tot=             28.7813
 Quadrupole moment (field-independent basis, Debye-Ang):
   XX=             21.8288   YY=           -318.7398   ZZ=            -69.2071
   XY=             75.9344   XZ=            283.7573   YZ=             59.8032

 Normal termination of Gaussian 16 at Sat Jul 16 15:21:02 2022.
