 Gaussian 16, Revision C.01,
 Gaussian 16:  ES64L-G16RevC.01  3-Jul-2019

 ----------------------------------------------------------------------
 # B3LYP/6-31G* empiricaldispersion=gd3bj guess=read geom=check nosymm
 integral(ultrafinegrid)
 ----------------------------------------------------------------------

 ------------------------------------------------------
 Candidate Structure: Conf:123 Charge calc in gas phase
 ------------------------------------------------------
 Structure from the checkpoint file:  "conf-123.chk"
 Charge =  1 Multiplicity = 1

                          Input orientation:
 ---------------------------------------------------------------------
 Center     Atomic      Atomic             Coordinates (Angstroms)
 Number     Number       Type             X           Y           Z
 ---------------------------------------------------------------------
      1          7           0       -0.884948   -6.120753    0.131915
      2          1           0       -0.563886   -5.597888    1.008906
      3          1           0       -1.901584   -6.099042   -0.019257
      4          1           0       -0.525173   -7.089315    0.182893
      5          6           0       -0.201636   -5.484701   -1.034233
      6          1           0        0.538581   -4.800784   -0.623541
      7          6           0       -1.272749   -4.712455   -1.802126
      8          6           0        0.529523   -6.598032   -1.838321
      9          1           0       -0.201764   -7.100760   -2.480476
     10          8           0       -2.413377   -5.158299   -1.886394
     11          6           0        1.656899   -6.003583   -2.672817
     12          1           0        1.280637   -5.245723   -3.369689
     13          1           0        2.147685   -6.790706   -3.250294
     14          1           0        2.403649   -5.539626   -2.017487
     15          8           0        0.982199   -7.590267   -0.931060
     16          1           0        1.578507   -7.153275   -0.276870
     17          7           0       -0.866687   -3.526961   -2.305827
     18          1           0        0.095924   -3.216317   -2.224902
     19          6           0       -1.779406   -2.519311   -2.800259
     20          1           0       -2.603436   -3.012191   -3.321808
     21          6           0       -0.966005   -1.586962   -3.701288
     22          6           0       -2.329543   -1.631628   -1.635672
     23          1           0       -1.487233   -1.026623   -1.278373
     24          1           0       -3.063244   -0.936068   -2.059425
     25          8           0        0.247720   -1.463369   -3.516796
     26          6           0       -2.938772   -2.401927   -0.492111
     27          6           0       -4.315445   -2.641485   -0.444908
     28          1           0       -4.954862   -2.250851   -1.232750
     29          6           0       -2.133459   -2.915847    0.531948
     30          1           0       -1.061309   -2.757128    0.513245
     31          6           0       -4.875921   -3.379084    0.596910
     32          1           0       -5.946999   -3.556585    0.616307
     33          6           0       -2.688190   -3.650437    1.580021
     34          1           0       -2.037890   -4.031517    2.361730
     35          6           0       -4.064010   -3.885247    1.613652
     36          1           0       -4.502662   -4.453011    2.429041
     37          7           0       -1.662451   -0.850784   -4.592612
     38          1           0       -2.665587   -0.966608   -4.658161
     39          6           0       -1.055957    0.262652   -5.336957
     40          1           0       -0.021888   -0.033089   -5.533649
     41          6           0       -1.060805    1.519288   -4.434672
     42          6           0       -1.808336    0.506188   -6.636310
     43          1           0       -1.324824    1.304942   -7.203814
     44          1           0       -2.834141    0.829048   -6.435338
     45          1           0       -1.819393   -0.402169   -7.245288
     46          8           0       -1.859851    2.438207   -4.601169
     47          7           0       -0.152465    1.489049   -3.432247
     48          1           0        0.482343    0.699800   -3.320621
     49          6           0       -0.053825    2.549091   -2.447321
     50          1           0        0.115005    3.502357   -2.963172
     51          6           0        1.185699    2.236100   -1.598473
     52          6           0       -1.337213    2.682175   -1.565916
     53          1           0       -1.072003    2.667997   -0.504886
     54          1           0       -1.956615    1.800380   -1.748655
     55          8           0        1.807785    1.174673   -1.755438
     56          6           0       -2.159615    3.933261   -1.868570
     57          1           0       -2.351702    3.996392   -2.945663
     58          1           0       -3.141279    3.886959   -1.382160
     59          6           0       -1.489935    5.206432   -1.419526
     60          8           0       -0.380306    5.297171   -0.913587
     61          8           0       -2.256130    6.284054   -1.636529
     62          7           0        1.513165    3.149035   -0.664554
     63          1           0        0.937462    3.991578   -0.601912
     64          6           0        2.710968    3.045909    0.176854
     65          1           0        3.502824    2.611036   -0.447200
     66          6           0        2.497624    2.064231    1.356561
     67          6           0        3.119383    4.430274    0.664210
     68          1           0        4.010003    4.363303    1.291523
     69          1           0        2.323757    4.882474    1.264263
     70          1           0        3.332411    5.079323   -0.189263
     71          8           0        2.798361    2.368463    2.526124
     72          7           0        1.984713    0.886324    0.979500
     73          1           0        1.957820    0.705150   -0.028820
     74          6           0        1.539168   -0.171803    1.855361
     75          1           0        1.721968    0.151939    2.880870
     76          6           0        2.431819   -1.406690    1.614986
     77          6           0        0.028657   -0.398149    1.669005
     78          1           0       -0.146426   -0.705039    0.630797
     79          1           0       -0.311541   -1.225488    2.303451
     80          8           0        3.527332   -1.282295    1.050224
     81          6           0       -0.830774    0.837810    1.989259
     82          1           0       -0.479603    1.659092    1.351069
     83          6           0       -2.299669    0.562204    1.646961
     84          1           0       -2.695299   -0.275025    2.233302
     85          1           0       -2.423477    0.305562    0.590119
     86          1           0       -2.917905    1.442043    1.855719
     87          6           0       -0.680638    1.282488    3.450096
     88          1           0       -0.927450    0.462206    4.136987
     89          1           0       -1.360222    2.112077    3.670884
     90          1           0        0.334180    1.629706    3.671074
     91          7           0        1.998757   -2.574187    2.119516
     92          1           0        1.021927   -2.712457    2.364306
     93          6           0        2.686238   -3.837470    1.859552
     94          1           0        3.251104   -3.726374    0.929240
     95          6           0        1.619927   -4.925219    1.597517
     96          6           0        3.672290   -4.232284    2.973221
     97          1           0        3.925615   -5.283060    2.806721
     98          1           0        3.151819   -4.186423    3.939622
     99          8           0        2.027207   -5.983314    1.078142
    100          6           0        4.965790   -3.377796    2.983319
    101          1           0        4.997338   -2.758798    2.083853
    102          1           0        5.840107   -4.037293    2.931486
    103          6           0        5.200664   -2.499249    4.217925
    104          1           0        6.137273   -1.945257    4.106001
    105          1           0        5.293689   -3.121481    5.113128
    106          7           0        4.152604   -1.509353    4.533480
    107          1           0        3.420395   -1.797069    5.167338
    108          7           0        4.856261    0.152585    3.060278
    109          1           0        4.740678    1.131496    2.814781
    110          1           0        4.828906   -0.464365    2.245107
    111          7           0        3.348150    0.667478    4.733318
    112          1           0        2.955101    0.492598    5.646524
    113          1           0        3.032992    1.473183    4.181965
    114          6           0        4.111142   -0.241546    4.109911
    115          8           0        0.414206   -4.616365    1.884548
    116          1           0       -1.754116    7.065327   -1.334512
 ---------------------------------------------------------------------

 SCF Done:  E(RB3LYP) =  -2782.62532438     A.U. after    1 cycles

 Alpha  occ. eigenvalues --  -19.28335 -19.23616 -19.22801 -19.22388 -19.21845
 Alpha  occ. eigenvalues --  -19.21581 -19.21577 -19.21191 -19.19602 -19.19355
 Alpha  occ. eigenvalues --  -19.18258 -14.50373 -14.50107 -14.49093 -14.47770
 Alpha  occ. eigenvalues --  -14.46162 -14.45674 -14.45184 -14.45171 -14.45144
 Alpha  occ. eigenvalues --  -14.43215 -10.45494 -10.41384 -10.39143 -10.38713
 Alpha  occ. eigenvalues --  -10.38603 -10.38584 -10.38536 -10.36620 -10.36304
 Alpha  occ. eigenvalues --  -10.33865 -10.33302 -10.33291 -10.33238 -10.33075
 Alpha  occ. eigenvalues --  -10.33043 -10.32361 -10.31683 -10.30781 -10.28961
 Alpha  occ. eigenvalues --  -10.28581 -10.28241 -10.27996 -10.27971 -10.27959
 Alpha  occ. eigenvalues --  -10.27742 -10.27675 -10.26651 -10.26643 -10.26628
 Alpha  occ. eigenvalues --  -10.26610 -10.26565 -10.26526 -10.26095 -10.25726
 Alpha  occ. eigenvalues --  -10.25545 -10.25437  -1.19708  -1.14679  -1.14117
 Alpha  occ. eigenvalues --   -1.14009  -1.13550  -1.13260  -1.13201  -1.12241
 Alpha  occ. eigenvalues --   -1.11097  -1.10557  -1.10498  -1.05252  -1.03954
 Alpha  occ. eigenvalues --   -1.03463  -1.03009  -1.02598  -1.02236  -1.01809
 Alpha  occ. eigenvalues --   -1.01701  -1.01330  -1.00124  -0.93561  -0.90839
 Alpha  occ. eigenvalues --   -0.89366  -0.89183  -0.88684  -0.86821  -0.86112
 Alpha  occ. eigenvalues --   -0.85341  -0.85129  -0.83007  -0.82230  -0.82071
 Alpha  occ. eigenvalues --   -0.81300  -0.78719  -0.78110  -0.77085  -0.76008
 Alpha  occ. eigenvalues --   -0.75380  -0.75268  -0.74795  -0.73238  -0.72143
 Alpha  occ. eigenvalues --   -0.71514  -0.70687  -0.69816  -0.69368  -0.68560
 Alpha  occ. eigenvalues --   -0.68459  -0.68168  -0.67786  -0.67636  -0.67273
 Alpha  occ. eigenvalues --   -0.67242  -0.67062  -0.66313  -0.65700  -0.65638
 Alpha  occ. eigenvalues --   -0.64325  -0.63628  -0.63395  -0.62881  -0.62095
 Alpha  occ. eigenvalues --   -0.61393  -0.60383  -0.59416  -0.59192  -0.58936
 Alpha  occ. eigenvalues --   -0.58846  -0.58550  -0.58205  -0.58138  -0.57823
 Alpha  occ. eigenvalues --   -0.57367  -0.57202  -0.56520  -0.56415  -0.56104
 Alpha  occ. eigenvalues --   -0.55523  -0.55447  -0.55183  -0.54928  -0.54519
 Alpha  occ. eigenvalues --   -0.54325  -0.53885  -0.53286  -0.53143  -0.52918
 Alpha  occ. eigenvalues --   -0.52611  -0.52343  -0.52065  -0.51959  -0.51481
 Alpha  occ. eigenvalues --   -0.51263  -0.51145  -0.50886  -0.50654  -0.50353
 Alpha  occ. eigenvalues --   -0.49933  -0.49916  -0.49475  -0.49328  -0.49101
 Alpha  occ. eigenvalues --   -0.48756  -0.48673  -0.48594  -0.48191  -0.48122
 Alpha  occ. eigenvalues --   -0.47825  -0.47703  -0.47299  -0.46852  -0.46729
 Alpha  occ. eigenvalues --   -0.46688  -0.46311  -0.46160  -0.45954  -0.45803
 Alpha  occ. eigenvalues --   -0.45538  -0.45526  -0.45241  -0.45111  -0.44953
 Alpha  occ. eigenvalues --   -0.44849  -0.44481  -0.44172  -0.44083  -0.43606
 Alpha  occ. eigenvalues --   -0.43489  -0.43322  -0.43254  -0.42341  -0.41944
 Alpha  occ. eigenvalues --   -0.41876  -0.41341  -0.41162  -0.40929  -0.40544
 Alpha  occ. eigenvalues --   -0.40225  -0.39123  -0.38075  -0.37270  -0.37076
 Alpha  occ. eigenvalues --   -0.36702  -0.36035  -0.35911  -0.35822  -0.35647
 Alpha  occ. eigenvalues --   -0.35326  -0.35082  -0.34918  -0.34448  -0.34435
 Alpha  occ. eigenvalues --   -0.34151  -0.33054  -0.32733  -0.32268  -0.31942
 Alpha  occ. eigenvalues --   -0.31805
 Alpha virt. eigenvalues --   -0.11737  -0.09205  -0.09162  -0.08729  -0.08018
 Alpha virt. eigenvalues --   -0.07813  -0.07505  -0.07352  -0.06914  -0.05788
 Alpha virt. eigenvalues --   -0.04928  -0.04360  -0.02691  -0.01709  -0.01648

 Mulliken charges:
               1
     1  N   -0.778294
     2  H    0.438985
     3  H    0.400076
     4  H    0.399327
     5  C   -0.108793
     6  H    0.182783
     7  C    0.634168
     8  C    0.132298
     9  H    0.170766
    10  O   -0.524430
    11  C   -0.476357
    12  H    0.156287
    13  H    0.188297
    14  H    0.160605
    15  O   -0.650302
    16  H    0.444547
    17  N   -0.609495
    18  H    0.357581
    19  C   -0.050279
    20  H    0.191060
    21  C    0.637079
    22  C   -0.386482
    23  H    0.166237
    24  H    0.157177
    25  O   -0.544463
    26  C    0.198281
    27  C   -0.167083
    28  H    0.131655
    29  C   -0.209832
    30  H    0.124763
    31  C   -0.122634
    32  H    0.149716
    33  C   -0.171703
    34  H    0.157479
    35  C   -0.133974
    36  H    0.145687
    37  N   -0.600258
    38  H    0.343030
    39  C   -0.067276
    40  H    0.193868
    41  C    0.624884
    42  C   -0.462380
    43  H    0.182690
    44  H    0.172064
    45  H    0.163627
    46  O   -0.526626
    47  N   -0.651854
    48  H    0.395453
    49  C   -0.007982
    50  H    0.190147
    51  C    0.586135
    52  C   -0.304287
    53  H    0.171500
    54  H    0.167025
    55  O   -0.556711
    56  C   -0.377107
    57  H    0.244875
    58  H    0.189888
    59  C    0.595590
    60  O   -0.497079
    61  O   -0.541650
    62  N   -0.632910
    63  H    0.409377
    64  C   -0.070345
    65  H    0.200019
    66  C    0.622312
    67  C   -0.462199
    68  H    0.173423
    69  H    0.172305
    70  H    0.172544
    71  O   -0.586827
    72  N   -0.578319
    73  H    0.401529
    74  C   -0.091387
    75  H    0.173719
    76  C    0.619871
    77  C   -0.286713
    78  H    0.153316
    79  H    0.147760
    80  O   -0.562584
    81  C   -0.086110
    82  H    0.141482
    83  C   -0.454868
    84  H    0.161077
    85  H    0.147195
    86  H    0.149685
    87  C   -0.462814
    88  H    0.140081
    89  H    0.162255
    90  H    0.143734
    91  N   -0.616372
    92  H    0.364507
    93  C   -0.058472
    94  H    0.186791
    95  C    0.610895
    96  C   -0.269241
    97  H    0.190230
    98  H    0.126505
    99  O   -0.588948
   100  C   -0.290123
   101  H    0.186935
   102  H    0.169647
   103  C   -0.173470
   104  H    0.195468
   105  H    0.181237
   106  N   -0.573401
   107  H    0.353421
   108  N   -0.736441
   109  H    0.371413
   110  H    0.406247
   111  N   -0.774253
   112  H    0.361531
   113  H    0.424081
   114  C    0.726143
   115  O   -0.633064
   116  H    0.423823
 Sum of Mulliken charges =   1.00000

 Dipole moment (field-independent basis, Debye):
    X=              3.9564    Y=             -0.9922    Z=              7.8021  Tot=              8.8040
 Quadrupole moment (field-independent basis, Debye-Ang):
   XX=           -279.2114   YY=           -286.4342   ZZ=           -250.8905
   XY=              3.5894   XZ=             47.7922   YZ=             -9.6123

 Normal termination of Gaussian 16 at Sat Jul 16 15:21:22 2022.
