 Gaussian 16, Revision C.01,
 Gaussian 16:  ES64L-G16RevC.01  3-Jul-2019

 ----------------------------------------------------------------------
 # B3LYP/6-31G* empiricaldispersion=gd3bj guess=read geom=check nosymm
 integral(ultrafinegrid)
 ----------------------------------------------------------------------

 ------------------------------------------------------
 Candidate Structure: Conf:197 Charge calc in gas phase
 ------------------------------------------------------
 Structure from the checkpoint file:  "conf-197.chk"
 Charge =  1 Multiplicity = 1

                          Input orientation:
 ---------------------------------------------------------------------
 Center     Atomic      Atomic             Coordinates (Angstroms)
 Number     Number       Type             X           Y           Z
 ---------------------------------------------------------------------
      1          7           0       -7.393606   -5.625234   -6.913963
      2          1           0       -8.071061   -5.942863   -6.216218
      3          1           0       -7.721166   -4.705986   -7.300895
      4          1           0       -7.260228   -6.353372   -7.637641
      5          6           0       -6.044104   -5.306248   -6.336687
      6          1           0       -5.896950   -5.894046   -5.427671
      7          6           0       -6.089429   -3.785121   -6.086661
      8          6           0       -4.990815   -5.679524   -7.425216
      9          1           0       -5.037924   -4.909949   -8.204137
     10          8           0       -6.941655   -3.131445   -6.702016
     11          6           0       -3.579263   -5.781144   -6.868499
     12          1           0       -3.230826   -4.832411   -6.449673
     13          1           0       -2.894182   -6.063378   -7.672650
     14          1           0       -3.523726   -6.542222   -6.079204
     15          8           0       -5.428069   -6.882100   -8.061147
     16          1           0       -4.977722   -7.642550   -7.657323
     17          7           0       -5.165751   -3.305803   -5.265217
     18          1           0       -4.426380   -3.899640   -4.886616
     19          6           0       -4.852957   -1.889577   -5.110187
     20          1           0       -4.976192   -1.404481   -6.085206
     21          6           0       -3.357053   -1.884358   -4.726158
     22          6           0       -5.776673   -1.183057   -4.089665
     23          1           0       -5.593766   -0.104813   -4.154184
     24          1           0       -6.804616   -1.337926   -4.435967
     25          8           0       -2.727261   -2.949042   -4.686923
     26          6           0       -5.601882   -1.654453   -2.664635
     27          6           0       -6.116362   -2.890857   -2.251244
     28          1           0       -6.679127   -3.498918   -2.955030
     29          6           0       -4.921222   -0.861934   -1.731919
     30          1           0       -4.525893    0.107189   -2.021133
     31          6           0       -5.936947   -3.336846   -0.942775
     32          1           0       -6.345258   -4.295716   -0.635762
     33          6           0       -4.755816   -1.299910   -0.417406
     34          1           0       -4.257555   -0.654023    0.297585
     35          6           0       -5.253126   -2.541371   -0.021794
     36          1           0       -5.124766   -2.881130    1.001617
     37          7           0       -2.819475   -0.686858   -4.472761
     38          1           0       -3.401378    0.132737   -4.315291
     39          6           0       -1.470603   -0.537413   -3.946172
     40          1           0       -1.242021   -1.424011   -3.344658
     41          6           0       -1.519072    0.693432   -3.024779
     42          6           0       -0.432257   -0.403125   -5.068235
     43          1           0        0.581261   -0.312714   -4.665496
     44          1           0       -0.639886    0.479428   -5.681035
     45          1           0       -0.468472   -1.292684   -5.702649
     46          8           0       -2.549104    1.371138   -2.930811
     47          7           0       -0.390338    0.941351   -2.343249
     48          1           0        0.471542    0.441632   -2.545046
     49          6           0       -0.198336    2.109696   -1.501364
     50          1           0       -0.873319    2.901165   -1.834067
     51          6           0        1.265556    2.524041   -1.659896
     52          6           0       -0.467040    1.789059   -0.013430
     53          1           0       -0.200580    2.655080    0.598710
     54          1           0        0.197385    0.975467    0.290684
     55          8           0        2.099619    1.732515   -2.097632
     56          6           0       -1.913471    1.385046    0.253770
     57          1           0       -2.200344    0.502291   -0.325070
     58          1           0       -2.035880    1.110838    1.309753
     59          6           0       -2.889917    2.498832   -0.044502
     60          8           0       -2.599707    3.656393   -0.255406
     61          8           0       -4.170489    2.059489   -0.018697
     62          7           0        1.567716    3.776936   -1.231797
     63          1           0        0.847615    4.258962   -0.705309
     64          6           0        2.941922    4.083452   -0.825616
     65          1           0        3.596126    3.760898   -1.638729
     66          6           0        3.222741    3.275614    0.456829
     67          6           0        3.090425    5.579547   -0.566832
     68          1           0        4.126897    5.816378   -0.308012
     69          1           0        2.454375    5.879331    0.272778
     70          1           0        2.811506    6.154634   -1.454592
     71          8           0        2.449323    3.361790    1.413995
     72          7           0        4.311300    2.485496    0.423123
     73          1           0        4.929948    2.491492   -0.378372
     74          6           0        4.692374    1.587416    1.495919
     75          1           0        4.192677    1.930273    2.405011
     76          6           0        6.210666    1.635287    1.659949
     77          6           0        4.306066    0.116725    1.198828
     78          1           0        4.814824   -0.170499    0.268913
     79          1           0        4.717483   -0.516996    1.995937
     80          8           0        6.941048    1.995433    0.742929
     81          6           0        2.798923   -0.141686    1.055778
     82          1           0        2.418525    0.522529    0.269070
     83          6           0        2.570821   -1.587005    0.594695
     84          1           0        2.945359   -2.299294    1.339609
     85          1           0        3.086275   -1.789156   -0.351500
     86          1           0        1.501858   -1.787656    0.448414
     87          6           0        2.042536    0.143832    2.359441
     88          1           0        2.478011   -0.425820    3.189822
     89          1           0        0.989690   -0.153785    2.272204
     90          1           0        2.063524    1.208655    2.608130
     91          7           0        6.651297    1.193959    2.886980
     92          1           0        5.955624    0.599753    3.412274
     93          6           0        7.857310    0.334778    2.976508
     94          1           0        8.202869    0.102672    1.964783
     95          6           0        7.376300   -0.984414    3.708699
     96          6           0        8.976744    1.001024    3.772151
     97          1           0        9.820493    0.308012    3.806679
     98          1           0        8.633203    1.103844    4.810245
     99          8           0        8.261639   -1.814857    3.937174
    100          6           0        9.372905    2.373246    3.203041
    101          1           0        8.556398    2.789084    2.606040
    102          1           0       10.208990    2.275564    2.500931
    103          6           0        9.804215    3.395812    4.258623
    104          1           0        9.854182    4.401733    3.826633
    105          1           0       10.798088    3.149758    4.640477
    106          7           0        8.962560    3.460770    5.480150
    107          1           0        9.456893    3.376639    6.357191
    108          7           0        6.804216    3.476896    4.571171
    109          1           0        5.852291    3.794185    4.702772
    110          1           0        6.903077    2.684755    3.888574
    111          7           0        7.161869    4.119539    6.766926
    112          1           0        7.784638    4.450609    7.489221
    113          1           0        6.217992    3.891822    7.045003
    114          6           0        7.647249    3.664227    5.586225
    115          8           0        6.135861   -0.986846    3.995495
    116          1           0       -4.732262    2.833984   -0.210568
 ---------------------------------------------------------------------

 SCF Done:  E(RB3LYP) =  -2782.49956826     A.U. after    3 cycles

 Alpha  occ. eigenvalues --  -19.30446 -19.26295 -19.25478 -19.21973 -19.19977
 Alpha  occ. eigenvalues --  -19.19743 -19.18755 -19.16498 -19.16118 -19.07971
 Alpha  occ. eigenvalues --  -19.06518 -14.59430 -14.49005 -14.48000 -14.47728
 Alpha  occ. eigenvalues --  -14.45487 -14.45017 -14.43450 -14.42273 -14.40762
 Alpha  occ. eigenvalues --  -14.37601 -10.43522 -10.43221 -10.40304 -10.39649
 Alpha  occ. eigenvalues --  -10.38831 -10.37901 -10.36872 -10.35350 -10.34402
 Alpha  occ. eigenvalues --  -10.33359 -10.32583 -10.31698 -10.30929 -10.30749
 Alpha  occ. eigenvalues --  -10.29758 -10.28996 -10.28758 -10.27181 -10.27108
 Alpha  occ. eigenvalues --  -10.26441 -10.26161 -10.26128 -10.25987 -10.25736
 Alpha  occ. eigenvalues --  -10.25546 -10.25491 -10.25479 -10.25368 -10.24035
 Alpha  occ. eigenvalues --  -10.23753 -10.22812 -10.21997 -10.21543 -10.21524
 Alpha  occ. eigenvalues --  -10.20565 -10.20029  -1.19266  -1.17606  -1.16267
 Alpha  occ. eigenvalues --   -1.13997  -1.13185  -1.11960  -1.11842  -1.10569
 Alpha  occ. eigenvalues --   -1.08303  -1.07524  -1.07271  -1.05956  -1.01941
 Alpha  occ. eigenvalues --   -1.01409  -1.00844  -1.00264  -0.99693  -0.98941
 Alpha  occ. eigenvalues --   -0.97227  -0.94782  -0.93596  -0.92636  -0.91799
 Alpha  occ. eigenvalues --   -0.88940  -0.87355  -0.85315  -0.85197  -0.84715
 Alpha  occ. eigenvalues --   -0.84525  -0.83106  -0.81827  -0.81405  -0.79966
 Alpha  occ. eigenvalues --   -0.79305  -0.77916  -0.77804  -0.75830  -0.74341
 Alpha  occ. eigenvalues --   -0.74225  -0.74056  -0.72209  -0.72067  -0.71319
 Alpha  occ. eigenvalues --   -0.71142  -0.70816  -0.70403  -0.68952  -0.68580
 Alpha  occ. eigenvalues --   -0.67798  -0.67557  -0.66723  -0.66229  -0.65815
 Alpha  occ. eigenvalues --   -0.65529  -0.64894  -0.64740  -0.64207  -0.63539
 Alpha  occ. eigenvalues --   -0.62802  -0.62760  -0.61272  -0.60645  -0.60365
 Alpha  occ. eigenvalues --   -0.59912  -0.59686  -0.58930  -0.58544  -0.58447
 Alpha  occ. eigenvalues --   -0.58185  -0.57489  -0.57024  -0.56757  -0.56254
 Alpha  occ. eigenvalues --   -0.55769  -0.54970  -0.54588  -0.54566  -0.54164
 Alpha  occ. eigenvalues --   -0.54003  -0.53796  -0.53445  -0.53193  -0.52973
 Alpha  occ. eigenvalues --   -0.52740  -0.52371  -0.51718  -0.51574  -0.51178
 Alpha  occ. eigenvalues --   -0.51015  -0.50767  -0.50570  -0.50376  -0.50024
 Alpha  occ. eigenvalues --   -0.49696  -0.49432  -0.49015  -0.48850  -0.48591
 Alpha  occ. eigenvalues --   -0.48028  -0.47711  -0.47584  -0.47526  -0.47326
 Alpha  occ. eigenvalues --   -0.46925  -0.46771  -0.46625  -0.46342  -0.45843
 Alpha  occ. eigenvalues --   -0.45825  -0.45542  -0.44882  -0.44519  -0.44236
 Alpha  occ. eigenvalues --   -0.44113  -0.43957  -0.43745  -0.43460  -0.43033
 Alpha  occ. eigenvalues --   -0.42904  -0.42449  -0.42285  -0.42141  -0.42016
 Alpha  occ. eigenvalues --   -0.41506  -0.41352  -0.41296  -0.41125  -0.40997
 Alpha  occ. eigenvalues --   -0.40643  -0.40485  -0.39486  -0.39081  -0.38967
 Alpha  occ. eigenvalues --   -0.38784  -0.38562  -0.37587  -0.37580  -0.36650
 Alpha  occ. eigenvalues --   -0.36191  -0.35978  -0.35883  -0.35649  -0.35454
 Alpha  occ. eigenvalues --   -0.35255  -0.34864  -0.34185  -0.33909  -0.33255
 Alpha  occ. eigenvalues --   -0.32644  -0.32156  -0.31942  -0.31608  -0.31265
 Alpha  occ. eigenvalues --   -0.30471  -0.29482  -0.28904  -0.22971  -0.22852
 Alpha  occ. eigenvalues --   -0.20564
 Alpha virt. eigenvalues --   -0.12350  -0.10217  -0.08796  -0.07894  -0.07305
 Alpha virt. eigenvalues --   -0.07071  -0.05733  -0.05357  -0.04874  -0.04609
 Alpha virt. eigenvalues --   -0.04560  -0.04550  -0.02899  -0.02602  -0.02283

 Mulliken charges:
               1
     1  N   -0.745891
     2  H    0.414634
     3  H    0.426493
     4  H    0.426973
     5  C   -0.143079
     6  H    0.204649
     7  C    0.641977
     8  C    0.128556
     9  H    0.192970
    10  O   -0.535347
    11  C   -0.517499
    12  H    0.212987
    13  H    0.205780
    14  H    0.164165
    15  O   -0.630191
    16  H    0.424813
    17  N   -0.590303
    18  H    0.376562
    19  C   -0.063227
    20  H    0.200963
    21  C    0.632349
    22  C   -0.382309
    23  H    0.171746
    24  H    0.184021
    25  O   -0.552428
    26  C    0.165293
    27  C   -0.174328
    28  H    0.091671
    29  C   -0.211003
    30  H    0.169742
    31  C   -0.126080
    32  H    0.132810
    33  C   -0.137138
    34  H    0.156098
    35  C   -0.127366
    36  H    0.145629
    37  N   -0.606987
    38  H    0.366368
    39  C   -0.059779
    40  H    0.198262
    41  C    0.627561
    42  C   -0.450980
    43  H    0.172460
    44  H    0.168163
    45  H    0.176998
    46  O   -0.551552
    47  N   -0.606429
    48  H    0.362463
    49  C   -0.089157
    50  H    0.209455
    51  C    0.628419
    52  C   -0.275903
    53  H    0.184633
    54  H    0.176554
    55  O   -0.536870
    56  C   -0.371509
    57  H    0.182790
    58  H    0.190960
    59  C    0.616090
    60  O   -0.473105
    61  O   -0.571227
    62  N   -0.580985
    63  H    0.349493
    64  C   -0.053803
    65  H    0.172510
    66  C    0.624751
    67  C   -0.471934
    68  H    0.166766
    69  H    0.170574
    70  H    0.169795
    71  O   -0.557629
    72  N   -0.578932
    73  H    0.348703
    74  C   -0.076367
    75  H    0.165236
    76  C    0.597286
    77  C   -0.282926
    78  H    0.139411
    79  H    0.198677
    80  O   -0.517122
    81  C   -0.082589
    82  H    0.135555
    83  C   -0.447799
    84  H    0.163081
    85  H    0.140158
    86  H    0.120107
    87  C   -0.475670
    88  H    0.158567
    89  H    0.121627
    90  H    0.172587
    91  N   -0.700185
    92  H    0.365078
    93  C   -0.073772
    94  H    0.163555
    95  C    0.590558
    96  C   -0.285523
    97  H    0.185434
    98  H    0.122004
    99  O   -0.564112
   100  C   -0.306052
   101  H    0.178218
   102  H    0.169034
   103  C   -0.140502
   104  H    0.181596
   105  H    0.173443
   106  N   -0.593561
   107  H    0.357756
   108  N   -0.777027
   109  H    0.355952
   110  H    0.455569
   111  N   -0.758485
   112  H    0.367648
   113  H    0.374278
   114  C    0.771342
   115  O   -0.618699
   116  H    0.414947
 Sum of Mulliken charges =   1.00000

 Dipole moment (field-independent basis, Debye):
    X=            -17.9230    Y=             -5.2592    Z=            -15.4401  Tot=             24.2340
 Quadrupole moment (field-independent basis, Debye-Ang):
   XX=           -104.1560   YY=           -160.9117   ZZ=            -91.7377
   XY=            267.8812   XZ=            226.3516   YZ=            230.2143

 Normal termination of Gaussian 16 at Sat Jul 16 15:22:21 2022.
