 Gaussian 16, Revision C.01,
 Gaussian 16:  ES64L-G16RevC.01  3-Jul-2019

 ----------------------------------------------------------------------
 # B3LYP/6-31G* empiricaldispersion=gd3bj guess=read geom=check nosymm
 integral(ultrafinegrid)
 ----------------------------------------------------------------------

 -----------------------------------------------------
 Candidate Structure: Conf:34 Charge calc in gas phase
 -----------------------------------------------------
 Structure from the checkpoint file:  "conf-34.chk"
 Charge =  1 Multiplicity = 1

                          Input orientation:
 ---------------------------------------------------------------------
 Center     Atomic      Atomic             Coordinates (Angstroms)
 Number     Number       Type             X           Y           Z
 ---------------------------------------------------------------------
      1          7           0       -7.313975   -6.419949   -4.033937
      2          1           0       -7.221570   -7.235031   -3.422477
      3          1           0       -7.764179   -5.641138   -3.490646
      4          1           0       -7.829984   -6.681396   -4.889866
      5          6           0       -5.989244   -5.839002   -4.447106
      6          1           0       -5.229469   -6.621011   -4.391720
      7          6           0       -5.762637   -4.682399   -3.447920
      8          6           0       -6.133442   -5.329120   -5.900173
      9          1           0       -6.725058   -4.401347   -5.878176
     10          8           0       -6.752103   -4.260939   -2.833760
     11          6           0       -4.787011   -5.082044   -6.568352
     12          1           0       -4.216339   -4.295974   -6.065134
     13          1           0       -4.944150   -4.757123   -7.602005
     14          1           0       -4.194073   -6.002120   -6.586838
     15          8           0       -6.879443   -6.364696   -6.548763
     16          1           0       -7.084513   -6.094742   -7.458097
     17          7           0       -4.527352   -4.211107   -3.372200
     18          1           0       -3.760227   -4.568307   -3.945540
     19          6           0       -4.132872   -3.013638   -2.637909
     20          1           0       -4.960666   -2.300012   -2.657467
     21          6           0       -2.924944   -2.478761   -3.429630
     22          6           0       -3.778082   -3.363674   -1.171237
     23          1           0       -4.664223   -3.848018   -0.743582
     24          1           0       -2.973627   -4.107083   -1.185101
     25          8           0       -2.320846   -3.238628   -4.201322
     26          6           0       -3.373603   -2.171735   -0.335566
     27          6           0       -2.085574   -2.085476    0.205348
     28          1           0       -1.368704   -2.879673    0.010071
     29          6           0       -4.285752   -1.138694   -0.080587
     30          1           0       -5.297366   -1.197789   -0.477832
     31          6           0       -1.720040   -1.005893    1.009514
     32          1           0       -0.727497   -0.944248    1.442253
     33          6           0       -3.916506   -0.046075    0.704680
     34          1           0       -4.633545    0.746395    0.896847
     35          6           0       -2.637250    0.016160    1.259346
     36          1           0       -2.353803    0.851561    1.892402
     37          7           0       -2.599250   -1.203271   -3.213476
     38          1           0       -3.118413   -0.624915   -2.556890
     39          6           0       -1.411490   -0.574604   -3.781523
     40          1           0       -0.571880   -1.270571   -3.680527
     41          6           0       -1.188360    0.686239   -2.936042
     42          6           0       -1.603011   -0.211012   -5.260281
     43          1           0       -0.695463    0.254361   -5.657628
     44          1           0       -2.433487    0.493232   -5.366353
     45          1           0       -1.815062   -1.115141   -5.836046
     46          8           0       -2.152378    1.301784   -2.482944
     47          7           0        0.097513    1.057120   -2.765052
     48          1           0        0.853558    0.424753   -3.008844
     49          6           0        0.484877    2.099095   -1.821724
     50          1           0        0.001333    3.042177   -2.097393
     51          6           0        2.005940    2.189180   -1.898373
     52          6           0        0.093191    1.665451   -0.386697
     53          1           0        0.676526    0.772323   -0.151196
     54          1           0       -0.953443    1.362769   -0.426275
     55          8           0        2.678913    1.195244   -2.187066
     56          6           0        0.270487    2.680251    0.742313
     57          1           0        1.206849    3.247357    0.665765
     58          1           0       -0.538449    3.416643    0.772219
     59          6           0        0.372427    1.977046    2.095685
     60          8           0        0.733142    0.801333    2.176702
     61          8           0        0.113400    2.755152    3.111237
     62          7           0        2.564735    3.374725   -1.546202
     63          1           0        1.950846    4.105421   -1.207753
     64          6           0        3.968606    3.443674   -1.113502
     65          1           0        4.534042    2.798675   -1.789021
     66          6           0        3.998557    2.876966    0.324182
     67          6           0        4.479116    4.874085   -1.181824
     68          1           0        5.534444    4.907962   -0.893957
     69          1           0        3.915603    5.512319   -0.493515
     70          1           0        4.382392    5.266363   -2.197640
     71          8           0        3.824212    3.625730    1.299571
     72          7           0        4.104563    1.544353    0.395926
     73          1           0        4.098001    1.051334   -0.490324
     74          6           0        3.823056    0.728026    1.583743
     75          1           0        2.739712    0.645163    1.685960
     76          6           0        4.395802    1.370845    2.854750
     77          6           0        4.434659   -0.668086    1.388094
     78          1           0        5.509413   -0.544502    1.208755
     79          1           0        4.331100   -1.210806    2.336064
     80          8           0        5.581925    1.758850    2.858167
     81          6           0        3.788625   -1.509400    0.269122
     82          1           0        3.763241   -0.922781   -0.662108
     83          6           0        4.640631   -2.755932   -0.000040
     84          1           0        4.707946   -3.380094    0.899747
     85          1           0        5.660658   -2.487935   -0.298084
     86          1           0        4.204023   -3.367260   -0.797937
     87          6           0        2.343441   -1.899671    0.609938
     88          1           0        2.320436   -2.543135    1.498601
     89          1           0        1.890528   -2.457948   -0.218400
     90          1           0        1.714520   -1.030746    0.821676
     91          7           0        3.537926    1.359545    3.874168
     92          1           0        2.570550    1.057392    3.709024
     93          6           0        3.630191    1.864217    5.252475
     94          1           0        3.941617    1.034058    5.904159
     95          6           0        2.149579    2.243504    5.669883
     96          6           0        4.561282    3.053096    5.463446
     97          1           0        4.171918    3.573076    6.342472
     98          1           0        4.426544    3.734803    4.616240
     99          8           0        1.257590    1.609722    4.996726
    100          6           0        6.046548    2.705210    5.662542
    101          1           0        6.308412    1.796041    5.115725
    102          1           0        6.261821    2.524268    6.721834
    103          6           0        6.961120    3.832623    5.173948
    104          1           0        8.017714    3.573751    5.309466
    105          1           0        6.756569    4.753952    5.732781
    106          7           0        6.681615    4.071465    3.749264
    107          1           0        6.265915    3.251574    3.261490
    108          7           0        7.190682    6.345138    3.704918
    109          1           0        6.789955    7.262060    3.571731
    110          1           0        7.784377    6.229024    4.512359
    111          7           0        5.836612    5.414037    2.070482
    112          1           0        5.109667    4.734466    1.804343
    113          1           0        5.905011    6.271308    1.543895
    114          6           0        6.557584    5.261114    3.189608
    115          8           0        2.002430    3.060375    6.574925
    116          1           0        0.459803    2.290283    4.001316
 ---------------------------------------------------------------------

 SCF Done:  E(RB3LYP) =  -2782.55332489     A.U. after    3 cycles

 Alpha  occ. eigenvalues --  -19.30313 -19.26175 -19.21449 -19.20697 -19.19389
 Alpha  occ. eigenvalues --  -19.19213 -19.18864 -19.16093 -19.15792 -19.10563
 Alpha  occ. eigenvalues --  -19.09577 -14.59208 -14.49034 -14.46316 -14.45098
 Alpha  occ. eigenvalues --  -14.44865 -14.44449 -14.43870 -14.43512 -14.42989
 Alpha  occ. eigenvalues --  -14.38893 -10.43232 -10.41406 -10.40381 -10.39772
 Alpha  occ. eigenvalues --  -10.38343 -10.37447 -10.36347 -10.36178 -10.34545
 Alpha  occ. eigenvalues --  -10.33999 -10.33101 -10.31549 -10.31525 -10.31034
 Alpha  occ. eigenvalues --  -10.30715 -10.29402 -10.28298 -10.28282 -10.27511
 Alpha  occ. eigenvalues --  -10.26465 -10.26353 -10.25670 -10.25292 -10.24984
 Alpha  occ. eigenvalues --  -10.24948 -10.24533 -10.24447 -10.24351 -10.24333
 Alpha  occ. eigenvalues --  -10.24143 -10.24124 -10.23525 -10.23052 -10.22073
 Alpha  occ. eigenvalues --  -10.21713 -10.21111  -1.19188  -1.17489  -1.13511
 Alpha  occ. eigenvalues --   -1.12921  -1.12805  -1.11376  -1.11242  -1.10869
 Alpha  occ. eigenvalues --   -1.10051  -1.06993  -1.05831  -1.03676  -1.02423
 Alpha  occ. eigenvalues --   -1.01585  -1.01464  -1.00200  -0.99436  -0.99194
 Alpha  occ. eigenvalues --   -0.98289  -0.96124  -0.94409  -0.93571  -0.92050
 Alpha  occ. eigenvalues --   -0.88472  -0.87330  -0.86281  -0.85105  -0.84701
 Alpha  occ. eigenvalues --   -0.84337  -0.83851  -0.81294  -0.80788  -0.80337
 Alpha  occ. eigenvalues --   -0.79043  -0.78006  -0.77328  -0.75079  -0.74147
 Alpha  occ. eigenvalues --   -0.73894  -0.73564  -0.72962  -0.72866  -0.71538
 Alpha  occ. eigenvalues --   -0.71013  -0.70882  -0.70136  -0.69138  -0.68223
 Alpha  occ. eigenvalues --   -0.67293  -0.66925  -0.66811  -0.66327  -0.66214
 Alpha  occ. eigenvalues --   -0.65208  -0.65100  -0.64894  -0.64646  -0.63439
 Alpha  occ. eigenvalues --   -0.63269  -0.61958  -0.61090  -0.60980  -0.59932
 Alpha  occ. eigenvalues --   -0.59690  -0.59335  -0.59193  -0.58655  -0.58481
 Alpha  occ. eigenvalues --   -0.57548  -0.57250  -0.57098  -0.56378  -0.56074
 Alpha  occ. eigenvalues --   -0.55771  -0.55337  -0.54873  -0.54309  -0.54239
 Alpha  occ. eigenvalues --   -0.54005  -0.53487  -0.53191  -0.52443  -0.52422
 Alpha  occ. eigenvalues --   -0.52332  -0.52127  -0.51967  -0.51731  -0.51483
 Alpha  occ. eigenvalues --   -0.50983  -0.50960  -0.50836  -0.50052  -0.49901
 Alpha  occ. eigenvalues --   -0.49629  -0.49304  -0.49177  -0.48817  -0.48568
 Alpha  occ. eigenvalues --   -0.48378  -0.48199  -0.48017  -0.47779  -0.47694
 Alpha  occ. eigenvalues --   -0.47276  -0.47100  -0.46996  -0.46334  -0.46053
 Alpha  occ. eigenvalues --   -0.45970  -0.45915  -0.45367  -0.45216  -0.44906
 Alpha  occ. eigenvalues --   -0.44761  -0.44239  -0.44085  -0.44018  -0.43576
 Alpha  occ. eigenvalues --   -0.42947  -0.42782  -0.42662  -0.42609  -0.42383
 Alpha  occ. eigenvalues --   -0.42056  -0.41662  -0.41199  -0.41045  -0.40728
 Alpha  occ. eigenvalues --   -0.40397  -0.39909  -0.39575  -0.39391  -0.38989
 Alpha  occ. eigenvalues --   -0.38475  -0.38129  -0.37572  -0.37488  -0.37372
 Alpha  occ. eigenvalues --   -0.37131  -0.36850  -0.36274  -0.35737  -0.35707
 Alpha  occ. eigenvalues --   -0.34895  -0.34706  -0.33926  -0.33645  -0.33203
 Alpha  occ. eigenvalues --   -0.32469  -0.32322  -0.31811  -0.30980  -0.30503
 Alpha  occ. eigenvalues --   -0.30137  -0.29576  -0.29484  -0.26098  -0.25426
 Alpha  occ. eigenvalues --   -0.23372
 Alpha virt. eigenvalues --   -0.12123  -0.09869  -0.07657  -0.07580  -0.06620
 Alpha virt. eigenvalues --   -0.06328  -0.06153  -0.05945  -0.05288  -0.04717
 Alpha virt. eigenvalues --   -0.04055  -0.02478  -0.02153  -0.02081  -0.01894

 Mulliken charges:
               1
     1  N   -0.748370
     2  H    0.416504
     3  H    0.425740
     4  H    0.429849
     5  C   -0.124113
     6  H    0.215531
     7  C    0.643754
     8  C    0.126704
     9  H    0.171621
    10  O   -0.538053
    11  C   -0.488932
    12  H    0.195019
    13  H    0.182241
    14  H    0.182808
    15  O   -0.647610
    16  H    0.433869
    17  N   -0.600936
    18  H    0.374954
    19  C   -0.076940
    20  H    0.194239
    21  C    0.638200
    22  C   -0.344347
    23  H    0.178169
    24  H    0.160252
    25  O   -0.564906
    26  C    0.157819
    27  C   -0.196339
    28  H    0.130266
    29  C   -0.210632
    30  H    0.128648
    31  C   -0.140761
    32  H    0.198523
    33  C   -0.113096
    34  H    0.146714
    35  C   -0.148748
    36  H    0.164310
    37  N   -0.613076
    38  H    0.376377
    39  C   -0.024020
    40  H    0.171537
    41  C    0.617945
    42  C   -0.449649
    43  H    0.164609
    44  H    0.170190
    45  H    0.176831
    46  O   -0.534336
    47  N   -0.623876
    48  H    0.355542
    49  C   -0.033013
    50  H    0.170945
    51  C    0.621009
    52  C   -0.303430
    53  H    0.179966
    54  H    0.204686
    55  O   -0.552354
    56  C   -0.387815
    57  H    0.162747
    58  H    0.176084
    59  C    0.610884
    60  O   -0.513942
    61  O   -0.596049
    62  N   -0.590479
    63  H    0.345415
    64  C   -0.061802
    65  H    0.188409
    66  C    0.646515
    67  C   -0.481248
    68  H    0.167402
    69  H    0.162027
    70  H    0.175915
    71  O   -0.581656
    72  N   -0.605248
    73  H    0.374225
    74  C   -0.077215
    75  H    0.221902
    76  C    0.670815
    77  C   -0.284092
    78  H    0.157234
    79  H    0.157602
    80  O   -0.618716
    81  C   -0.099541
    82  H    0.129748
    83  C   -0.440433
    84  H    0.147795
    85  H    0.144445
    86  H    0.140493
    87  C   -0.482067
    88  H    0.148402
    89  H    0.127007
    90  H    0.198624
    91  N   -0.643129
    92  H    0.392986
    93  C   -0.053644
    94  H    0.160630
    95  C    0.596618
    96  C   -0.284489
    97  H    0.192440
    98  H    0.131137
    99  O   -0.653210
   100  C   -0.301684
   101  H    0.180074
   102  H    0.154391
   103  C   -0.162110
   104  H    0.169357
   105  H    0.152067
   106  N   -0.600923
   107  H    0.429806
   108  N   -0.755906
   109  H    0.363076
   110  H    0.372697
   111  N   -0.815205
   112  H    0.448433
   113  H    0.347932
   114  C    0.767358
   115  O   -0.523488
   116  H    0.473571
 Sum of Mulliken charges =   1.00000

 Dipole moment (field-independent basis, Debye):
    X=             -9.7249    Y=            -11.2208    Z=            -23.4350  Tot=             27.7431
 Quadrupole moment (field-independent basis, Debye-Ang):
   XX=            -64.3640   YY=           -102.0341   ZZ=           -268.5339
   XY=            247.5096   XZ=            164.0010   YZ=            112.9872

 Normal termination of Gaussian 16 at Sat Jul 16 15:28:22 2022.
