 Gaussian 16, Revision C.01,
 Gaussian 16:  ES64L-G16RevC.01  3-Jul-2019

 ----------------------------------------------------------------------
 # B3LYP/6-31G* empiricaldispersion=gd3bj guess=read geom=check nosymm
 integral(ultrafinegrid)
 ----------------------------------------------------------------------

 -----------------------------------------------------
 Candidate Structure: Conf:90 Charge calc in gas phase
 -----------------------------------------------------
 Structure from the checkpoint file:  "conf-90.chk"
 Charge =  1 Multiplicity = 1

                          Input orientation:
 ---------------------------------------------------------------------
 Center     Atomic      Atomic             Coordinates (Angstroms)
 Number     Number       Type             X           Y           Z
 ---------------------------------------------------------------------
      1          7           0       -8.451118   -0.576513   -5.603639
      2          1           0       -8.213293    0.022979   -4.789915
      3          1           0       -8.523218    0.048800   -6.417667
      4          1           0       -9.339205   -1.068821   -5.457244
      5          6           0       -7.365226   -1.565224   -5.894042
      6          1           0       -7.240219   -2.208189   -5.019073
      7          6           0       -6.126476   -0.720425   -6.195827
      8          6           0       -7.804424   -2.419429   -7.083350
      9          1           0       -7.935916   -1.755490   -7.950345
     10          8           0       -6.244093    0.208436   -6.994570
     11          6           0       -6.799680   -3.514929   -7.405715
     12          1           0       -5.829982   -3.093663   -7.687171
     13          1           0       -7.159357   -4.119367   -8.243312
     14          1           0       -6.665115   -4.172197   -6.540968
     15          8           0       -9.070009   -2.945193   -6.671909
     16          1           0       -9.435206   -3.483454   -7.388977
     17          7           0       -5.010221   -1.010910   -5.507422
     18          1           0       -4.923115   -1.849031   -4.943667
     19          6           0       -3.886601   -0.096143   -5.424692
     20          1           0       -3.909618    0.527773   -6.319544
     21          6           0       -2.619659   -0.945468   -5.315179
     22          6           0       -3.960665    0.797894   -4.151816
     23          1           0       -3.752627    0.158982   -3.286993
     24          1           0       -3.153551    1.534889   -4.218408
     25          8           0       -2.667146   -2.044661   -4.773217
     26          6           0       -5.296008    1.469971   -3.956971
     27          6           0       -5.658639    2.593608   -4.708451
     28          1           0       -4.942258    3.021555   -5.404340
     29          6           0       -6.235682    0.929132   -3.071597
     30          1           0       -5.969409    0.060266   -2.475369
     31          6           0       -6.932108    3.150411   -4.599968
     32          1           0       -7.191658    4.018600   -5.196750
     33          6           0       -7.508466    1.495833   -2.940410
     34          1           0       -8.203486    1.093250   -2.208201
     35          6           0       -7.866312    2.600385   -3.720084
     36          1           0       -8.850078    3.047393   -3.616402
     37          7           0       -1.494197   -0.364472   -5.802877
     38          1           0       -1.538750    0.633620   -5.978967
     39          6           0       -0.173046   -0.779470   -5.341146
     40          1           0       -0.293576   -1.760731   -4.878897
     41          6           0        0.267394    0.261776   -4.302916
     42          6           0        0.825518   -0.842283   -6.498019
     43          1           0        1.810703   -1.158393   -6.142238
     44          1           0        0.930921    0.142665   -6.963173
     45          1           0        0.479724   -1.551834   -7.253513
     46          8           0       -0.079773    1.441715   -4.425707
     47          7           0        1.041093   -0.180302   -3.293699
     48          1           0        1.352671   -1.141409   -3.285029
     49          6           0        1.540715    0.719978   -2.250194
     50          1           0        0.759188    1.473706   -2.113072
     51          6           0        2.821409    1.427758   -2.732145
     52          6           0        1.761265   -0.037421   -0.944509
     53          1           0        2.571328   -0.761164   -1.063915
     54          1           0        0.842184   -0.591450   -0.723278
     55          8           0        3.935364    1.107609   -2.319405
     56          6           0        2.089258    0.914598    0.213608
     57          1           0        3.049649    1.403182    0.014192
     58          1           0        1.331159    1.693576    0.320228
     59          6           0        2.199026    0.212396    1.543342
     60          8           0        1.632176    0.536460    2.560520
     61          8           0        3.039784   -0.851254    1.484035
     62          7           0        2.612004    2.415576   -3.630525
     63          1           0        1.662596    2.598759   -3.938096
     64          6           0        3.668828    3.353389   -4.010497
     65          1           0        4.604782    2.787017   -3.992785
     66          6           0        3.719799    4.468420   -2.936473
     67          6           0        3.405045    3.921076   -5.396011
     68          1           0        4.204204    4.609985   -5.678911
     69          1           0        2.467986    4.484322   -5.407920
     70          1           0        3.354675    3.112775   -6.131548
     71          8           0        3.358902    5.616679   -3.179686
     72          7           0        4.096341    4.026238   -1.714755
     73          1           0        4.541078    3.119012   -1.605470
     74          6           0        4.136660    4.872801   -0.538507
     75          1           0        4.144579    5.910814   -0.873563
     76          6           0        5.415010    4.525991    0.226724
     77          6           0        2.888028    4.601102    0.340007
     78          1           0        2.021215    4.631186   -0.334778
     79          1           0        2.969328    3.567286    0.702830
     80          8           0        5.991709    3.454526    0.016336
     81          6           0        2.629036    5.541696    1.526496
     82          1           0        3.522151    5.625669    2.149634
     83          6           0        2.291074    6.960946    1.061379
     84          1           0        1.282193    7.003800    0.630676
     85          1           0        2.981349    7.310193    0.283317
     86          1           0        2.361278    7.655847    1.900826
     87          6           0        1.498311    4.973475    2.388341
     88          1           0        0.576659    4.859464    1.802453
     89          1           0        1.284479    5.636147    3.232643
     90          1           0        1.761529    3.989764    2.792128
     91          7           0        5.809210    5.437756    1.149729
     92          1           0        5.094409    6.064188    1.550212
     93          6           0        6.650821    5.042584    2.271467
     94          1           0        6.706937    3.949285    2.319524
     95          6           0        5.962946    5.584490    3.582447
     96          6           0        8.064301    5.606905    2.170479
     97          1           0        8.580566    5.348450    3.100570
     98          1           0        8.016193    6.702681    2.114919
     99          8           0        6.570875    5.345600    4.635217
    100          6           0        8.811162    5.066150    0.953278
    101          1           0        8.254158    5.309008    0.043497
    102          1           0        8.867624    3.971608    1.012099
    103          6           0       10.213050    5.648703    0.854764
    104          1           0       10.800409    5.400810    1.748411
    105          1           0       10.148826    6.740125    0.777197
    106          7           0       10.891967    5.134479   -0.354017
    107          1           0       10.631531    4.190245   -0.614677
    108          7           0       12.736063    6.530811   -0.121579
    109          1           0       13.489704    7.024768   -0.576841
    110          1           0       12.261472    7.026367    0.619042
    111          7           0       12.691035    4.913249   -1.800119
    112          1           0       12.100064    4.421128   -2.456821
    113          1           0       13.524116    5.319299   -2.202211
    114          6           0       12.093551    5.540238   -0.760369
    115          8           0        4.877018    6.200736    3.383057
    116          1           0        3.070992   -1.218838    2.385122
 ---------------------------------------------------------------------

 SCF Done:  E(RB3LYP) =  -2782.45036052     A.U. after    1 cycles

 Alpha  occ. eigenvalues --  -19.29142 -19.25297 -19.22553 -19.22054 -19.20555
 Alpha  occ. eigenvalues --  -19.16731 -19.16517 -19.13211 -19.11991 -19.04482
 Alpha  occ. eigenvalues --  -19.03439 -14.60651 -14.51325 -14.51013 -14.50137
 Alpha  occ. eigenvalues --  -14.49270 -14.45541 -14.44969 -14.40533 -14.36566
 Alpha  occ. eigenvalues --  -14.33742 -10.47054 -10.42931 -10.40208 -10.39044
 Alpha  occ. eigenvalues --  -10.38976 -10.37363 -10.35024 -10.34720 -10.33570
 Alpha  occ. eigenvalues --  -10.32180 -10.31896 -10.30569 -10.30348 -10.30343
 Alpha  occ. eigenvalues --  -10.30070 -10.30024 -10.29897 -10.29762 -10.29705
 Alpha  occ. eigenvalues --  -10.29359 -10.29282 -10.28425 -10.26800 -10.26595
 Alpha  occ. eigenvalues --  -10.24852 -10.23688 -10.23555 -10.23303 -10.22374
 Alpha  occ. eigenvalues --  -10.21971 -10.19856 -10.19650 -10.18772 -10.16540
 Alpha  occ. eigenvalues --  -10.16403 -10.16288  -1.18665  -1.16656  -1.15700
 Alpha  occ. eigenvalues --   -1.14335  -1.13963  -1.13438  -1.12396  -1.08500
 Alpha  occ. eigenvalues --   -1.05775  -1.05077  -1.04458  -1.04335  -1.04312
 Alpha  occ. eigenvalues --   -1.03469  -1.02434  -1.01039  -0.97736  -0.97099
 Alpha  occ. eigenvalues --   -0.96433  -0.93572  -0.93395  -0.91272  -0.90159
 Alpha  occ. eigenvalues --   -0.88789  -0.87271  -0.86410  -0.85906  -0.85079
 Alpha  occ. eigenvalues --   -0.85036  -0.83303  -0.81679  -0.80447  -0.79086
 Alpha  occ. eigenvalues --   -0.78208  -0.78165  -0.76475  -0.76259  -0.74892
 Alpha  occ. eigenvalues --   -0.74825  -0.73565  -0.73126  -0.71908  -0.71323
 Alpha  occ. eigenvalues --   -0.70920  -0.70557  -0.70179  -0.69399  -0.68934
 Alpha  occ. eigenvalues --   -0.67927  -0.67814  -0.67293  -0.66986  -0.66579
 Alpha  occ. eigenvalues --   -0.65776  -0.65104  -0.64248  -0.63949  -0.63625
 Alpha  occ. eigenvalues --   -0.63372  -0.62747  -0.61564  -0.61438  -0.60835
 Alpha  occ. eigenvalues --   -0.59738  -0.59368  -0.58814  -0.58651  -0.58572
 Alpha  occ. eigenvalues --   -0.57256  -0.56883  -0.56620  -0.56443  -0.56074
 Alpha  occ. eigenvalues --   -0.55932  -0.55573  -0.55363  -0.54818  -0.54793
 Alpha  occ. eigenvalues --   -0.54399  -0.53746  -0.53477  -0.52726  -0.52503
 Alpha  occ. eigenvalues --   -0.52424  -0.51687  -0.51563  -0.51407  -0.51023
 Alpha  occ. eigenvalues --   -0.50916  -0.50776  -0.50396  -0.50192  -0.49562
 Alpha  occ. eigenvalues --   -0.49131  -0.48559  -0.47891  -0.47681  -0.47664
 Alpha  occ. eigenvalues --   -0.47616  -0.47300  -0.47122  -0.46913  -0.46290
 Alpha  occ. eigenvalues --   -0.46055  -0.45807  -0.45032  -0.44894  -0.44691
 Alpha  occ. eigenvalues --   -0.44474  -0.44310  -0.44194  -0.43956  -0.43721
 Alpha  occ. eigenvalues --   -0.43305  -0.42666  -0.42554  -0.42299  -0.42192
 Alpha  occ. eigenvalues --   -0.41841  -0.41791  -0.41649  -0.41043  -0.40832
 Alpha  occ. eigenvalues --   -0.40553  -0.40267  -0.39779  -0.39617  -0.39489
 Alpha  occ. eigenvalues --   -0.38964  -0.38776  -0.38415  -0.37655  -0.37346
 Alpha  occ. eigenvalues --   -0.36860  -0.36492  -0.36476  -0.36279  -0.35783
 Alpha  occ. eigenvalues --   -0.35496  -0.35152  -0.34959  -0.34917  -0.34651
 Alpha  occ. eigenvalues --   -0.34108  -0.34013  -0.32707  -0.32038  -0.31703
 Alpha  occ. eigenvalues --   -0.31378  -0.30300  -0.30262  -0.29627  -0.26875
 Alpha  occ. eigenvalues --   -0.26568  -0.25587  -0.25326  -0.19756  -0.19340
 Alpha  occ. eigenvalues --   -0.17667
 Alpha virt. eigenvalues --   -0.13134  -0.11646  -0.11623  -0.11006  -0.08690
 Alpha virt. eigenvalues --   -0.07802  -0.07169  -0.06601  -0.05240  -0.05046
 Alpha virt. eigenvalues --   -0.03822  -0.02901  -0.02878  -0.02434  -0.02221

 Mulliken charges:
               1
     1  N   -0.736262
     2  H    0.418012
     3  H    0.419517
     4  H    0.427995
     5  C   -0.128375
     6  H    0.208415
     7  C    0.646907
     8  C    0.135876
     9  H    0.167363
    10  O   -0.524309
    11  C   -0.481719
    12  H    0.187557
    13  H    0.184402
    14  H    0.179670
    15  O   -0.649065
    16  H    0.428218
    17  N   -0.599879
    18  H    0.358808
    19  C   -0.074880
    20  H    0.200476
    21  C    0.623655
    22  C   -0.380438
    23  H    0.177656
    24  H    0.198673
    25  O   -0.525327
    26  C    0.180435
    27  C   -0.153345
    28  H    0.154604
    29  C   -0.207807
    30  H    0.145511
    31  C   -0.129286
    32  H    0.164194
    33  C   -0.191838
    34  H    0.157785
    35  C   -0.149852
    36  H    0.160252
    37  N   -0.575551
    38  H    0.349726
    39  C   -0.093622
    40  H    0.189785
    41  C    0.640557
    42  C   -0.445165
    43  H    0.168733
    44  H    0.171375
    45  H    0.176847
    46  O   -0.559559
    47  N   -0.602184
    48  H    0.344823
    49  C   -0.060795
    50  H    0.184049
    51  C    0.635634
    52  C   -0.289918
    53  H    0.183949
    54  H    0.144587
    55  O   -0.534570
    56  C   -0.362862
    57  H    0.224338
    58  H    0.178156
    59  C    0.567747
    60  O   -0.451202
    61  O   -0.562778
    62  N   -0.605731
    63  H    0.361890
    64  C   -0.061214
    65  H    0.173957
    66  C    0.607616
    67  C   -0.451077
    68  H    0.167295
    69  H    0.166490
    70  H    0.135144
    71  O   -0.531274
    72  N   -0.617509
    73  H    0.370375
    74  C   -0.073768
    75  H    0.178064
    76  C    0.587131
    77  C   -0.256299
    78  H    0.119412
    79  H    0.132375
    80  O   -0.566772
    81  C   -0.113158
    82  H    0.212179
    83  C   -0.451472
    84  H    0.119345
    85  H    0.131573
    86  H    0.160842
    87  C   -0.445972
    88  H    0.105974
    89  H    0.151396
    90  H    0.148966
    91  N   -0.606260
    92  H    0.359391
    93  C   -0.082562
    94  H    0.151539
    95  C    0.582179
    96  C   -0.258823
    97  H    0.165596
    98  H    0.130237
    99  O   -0.585344
   100  C   -0.300523
   101  H    0.174128
   102  H    0.158119
   103  C   -0.166586
   104  H    0.188543
   105  H    0.174712
   106  N   -0.585138
   107  H    0.372649
   108  N   -0.740398
   109  H    0.377050
   110  H    0.399495
   111  N   -0.743535
   112  H    0.382924
   113  H    0.373285
   114  C    0.793903
   115  O   -0.598603
   116  H    0.412545
 Sum of Mulliken charges =   1.00000

 Dipole moment (field-independent basis, Debye):
    X=             -4.0797    Y=             -3.0977    Z=            -40.7467  Tot=             41.0674
 Quadrupole moment (field-independent basis, Debye-Ang):
   XX=            410.9010   YY=           -297.9342   ZZ=           -226.4622
   XY=            202.5086   XZ=             74.5598   YZ=            -42.2141

 Normal termination of Gaussian 16 at Sat Jul 16 15:20:52 2022.
