 Gaussian 16, Revision C.01,
 Gaussian 16:  ES64L-G16RevC.01  3-Jul-2019

 ----------------------------------------------------------------------
 # B3LYP/6-31G* empiricaldispersion=gd3 guess=read geom=check nosymm in
 tegral(ultrafinegrid)
 ----------------------------------------------------------------------

 ------------------------------------------------------
 Candidate Structure: Conf:449 Charge calc in gas phase
 ------------------------------------------------------
 Structure from the checkpoint file:  "conf-449.chk"
 Charge =  1 Multiplicity = 1

                          Input orientation:
 ---------------------------------------------------------------------
 Center     Atomic      Atomic             Coordinates (Angstroms)
 Number     Number       Type             X           Y           Z
 ---------------------------------------------------------------------
      1          7           0       -4.749415   -2.757787   -0.174203
      2          1           0       -3.765387   -3.502176   -0.075505
      3          1           0       -5.597657   -3.238334   -0.490919
      4          1           0       -4.867970   -2.317660    0.758801
      5          6           0       -4.334228   -1.642537   -1.111879
      6          1           0       -3.650215   -2.083547   -1.843746
      7          6           0       -3.605615   -0.630718   -0.210896
      8          6           0       -5.552368   -0.967874   -1.765028
      9          1           0       -5.223039   -0.137677   -2.396248
     10          1           0       -6.095521   -1.681346   -2.393459
     11          1           0       -6.226690   -0.574696   -0.996642
     12          8           0       -3.710485   -0.701707    1.041954
     13          7           0       -2.930058    0.333502   -0.854312
     14          1           0       -2.718318    0.322326   -1.856337
     15          6           0       -2.279770    1.431310   -0.137833
     16          1           0       -2.973617    1.901752    0.562487
     17          6           0       -1.746302    2.373728   -1.214386
     18          6           0       -1.006631    0.908616    0.620028
     19          1           0       -0.234376    0.738270   -0.132480
     20          1           0       -1.292286   -0.059102    1.034915
     21          8           0       -1.674542    1.999928   -2.416692
     22          6           0       -0.577782    1.794425    1.749270
     23          6           0        0.387010    2.782543    1.807255
     24          1           0        1.034526    3.190527    1.049640
     25          6           0       -1.184734    1.727308    3.063242
     26          6           0       -0.528803    2.693582    3.889509
     27          6           0       -2.201384    0.911314    3.595385
     28          1           0       -2.742511    0.232155    2.943148
     29          7           0        0.416088    3.320509    3.094843
     30          1           0        1.006526    4.094324    3.370502
     31          6           0       -1.838603    1.985023    5.761067
     32          1           0       -2.118364    2.075647    6.804265
     33          6           0       -0.853381    2.826405    5.244488
     34          1           0       -0.367271    3.564418    5.871733
     35          6           0       -2.509352    1.043956    4.945523
     36          1           0       -3.288972    0.431070    5.381447
     37          7           0       -1.191728    3.508750   -0.760259
     38          1           0       -1.204814    3.783800    0.223036
     39          6           0       -0.192246    4.257838   -1.547209
     40          1           0       -0.548676    4.358648   -2.575639
     41          6           0        1.160270    3.471029   -1.534286
     42          6           0       -0.021346    5.625900   -0.879108
     43          1           0       -0.830675    6.289130   -1.206047
     44          1           0        0.949950    6.040187   -1.161843
     45          8           0        2.150309    3.905266   -0.907663
     46          8           0       -0.094496    5.378670    0.570093
     47          1           0       -0.150360    6.253292    1.034841
     48          7           0        1.091513    2.306886   -2.223176
     49          1           0        0.172544    2.040675   -2.600381
     50          6           0        2.177160    1.336750   -2.464666
     51          1           0        2.717687    1.621944   -3.377286
     52          6           0        1.482141   -0.014160   -2.665906
     53          6           0        3.235484    1.200625   -1.314634
     54          1           0        3.594617    2.213375   -1.127392
     55          8           0        0.416660   -0.306060   -2.074945
     56          6           0        2.613052    0.640641   -0.022789
     57          1           0        2.282374   -0.388019   -0.187196
     58          1           0        3.367768    0.644829    0.772941
     59          1           0        1.772960    1.249649    0.303304
     60          6           0        4.399775    0.277165   -1.743240
     61          1           0        4.062838   -0.764518   -1.754065
     62          1           0        5.213882    0.367879   -1.016462
     63          1           0        4.802614    0.555346   -2.726180
     64          7           0        2.140732   -0.886471   -3.464226
     65          1           0        3.008161   -0.611172   -3.911754
     66          6           0        1.767526   -2.311768   -3.501988
     67          1           0        0.856429   -2.441970   -4.092550
     68          6           0        1.538330   -2.774945   -2.041639
     69          6           0        2.937994   -3.112541   -4.092295
     70          1           0        2.664964   -4.168149   -4.175063
     71          1           0        3.793209   -3.021203   -3.415749
     72          1           0        3.205742   -2.742853   -5.087928
     73          8           0        2.423478   -2.572031   -1.176081
     74          7           0        0.358746   -3.387463   -1.865466
     75          1           0       -0.362404   -3.332763   -2.598829
     76          6           0       -0.303195   -3.682710   -0.588537
     77          1           0        0.026820   -4.627909   -0.147188
     78          6           0       -1.810819   -3.766487   -0.954448
     79          6           0       -0.203066   -2.518762    0.436638
     80          1           0       -0.114104   -1.602384   -0.150318
     81          1           0       -1.150106   -2.507908    0.985145
     82          8           0       -2.586880   -3.993221    0.067038
     83          6           0        0.954124   -2.629317    1.446120
     84          1           0        0.846227   -3.549011    2.034496
     85          1           0        1.891147   -2.648721    0.884561
     86          6           0        0.874419   -1.416101    2.383486
     87          1           0       -0.111241   -1.384643    2.861536
     88          1           0        1.019893   -0.490953    1.820430
     89          7           0        1.896755   -1.498225    3.463032
     90          1           0        2.738334   -2.030687    3.261021
     91          7           0        0.822101    0.070462    4.784039
     92          1           0        0.561366    0.438104    5.692845
     93          1           0        0.266515    0.431807    4.007163
     94          7           0        2.642160   -1.103052    5.633533
     95          1           0        2.697790   -0.496788    6.442800
     96          1           0        3.239645   -1.920955    5.616379
     97          6           0        1.784541   -0.840073    4.620272
     98          8           0       -2.175555   -3.493672   -2.131275
 ---------------------------------------------------------------------

 SCF Done:  E(RB3LYP) =  -2360.18119605     A.U. after   13 cycles

 Alpha  occ. eigenvalues --  -19.24607 -19.21259 -19.21038 -19.19536 -19.19261
 Alpha  occ. eigenvalues --  -19.19200 -19.18282 -19.17925 -14.50991 -14.50443
 Alpha  occ. eigenvalues --  -14.49614 -14.47100 -14.46638 -14.44992 -14.44968
 Alpha  occ. eigenvalues --  -14.44191 -14.43188 -14.41656 -10.46824 -10.38165
 Alpha  occ. eigenvalues --  -10.38100 -10.36652 -10.36603 -10.36311 -10.35263
 Alpha  occ. eigenvalues --  -10.32910 -10.32477 -10.32472 -10.32168 -10.32160
 Alpha  occ. eigenvalues --  -10.31533 -10.31144 -10.30795 -10.30579 -10.29725
 Alpha  occ. eigenvalues --  -10.28501 -10.27951 -10.27642 -10.27391 -10.27307
 Alpha  occ. eigenvalues --  -10.27276 -10.27176 -10.27096 -10.26603 -10.26118
 Alpha  occ. eigenvalues --  -10.25541 -10.25339 -10.23738 -10.23574  -1.14956
 Alpha  occ. eigenvalues --   -1.12620  -1.11811  -1.11318  -1.10824  -1.10267
 Alpha  occ. eigenvalues --   -1.09370  -1.08276  -1.06525  -1.04117  -1.03284
 Alpha  occ. eigenvalues --   -1.03086  -1.01499  -1.01169  -1.00856  -1.00003
 Alpha  occ. eigenvalues --   -0.99210  -0.98181  -0.93124  -0.89738  -0.88476
 Alpha  occ. eigenvalues --   -0.87753  -0.86345  -0.84717  -0.84563  -0.82990
 Alpha  occ. eigenvalues --   -0.82475  -0.82164  -0.80654  -0.78775  -0.78126
 Alpha  occ. eigenvalues --   -0.76009  -0.75412  -0.74796  -0.73526  -0.72761
 Alpha  occ. eigenvalues --   -0.71989  -0.71204  -0.70944  -0.69486  -0.69227
 Alpha  occ. eigenvalues --   -0.68207  -0.67810  -0.67284  -0.67008  -0.66587
 Alpha  occ. eigenvalues --   -0.64653  -0.64245  -0.63965  -0.63785  -0.63038
 Alpha  occ. eigenvalues --   -0.62783  -0.62749  -0.62195  -0.61413  -0.60148
 Alpha  occ. eigenvalues --   -0.59569  -0.59082  -0.58265  -0.57553  -0.57344
 Alpha  occ. eigenvalues --   -0.57199  -0.57107  -0.56810  -0.56246  -0.56040
 Alpha  occ. eigenvalues --   -0.55567  -0.55080  -0.54523  -0.54181  -0.53434
 Alpha  occ. eigenvalues --   -0.53189  -0.52913  -0.52669  -0.52211  -0.52046
 Alpha  occ. eigenvalues --   -0.51650  -0.51421  -0.51311  -0.51064  -0.50489
 Alpha  occ. eigenvalues --   -0.50168  -0.49944  -0.49526  -0.48952  -0.48841
 Alpha  occ. eigenvalues --   -0.48675  -0.48451  -0.47874  -0.47607  -0.47190
 Alpha  occ. eigenvalues --   -0.47061  -0.46499  -0.46423  -0.46265  -0.46006
 Alpha  occ. eigenvalues --   -0.45756  -0.45505  -0.45011  -0.44805  -0.44772
 Alpha  occ. eigenvalues --   -0.44612  -0.44265  -0.43821  -0.43457  -0.43337
 Alpha  occ. eigenvalues --   -0.43163  -0.42740  -0.42459  -0.42330  -0.41952
 Alpha  occ. eigenvalues --   -0.41663  -0.41373  -0.40925  -0.40628  -0.40019
 Alpha  occ. eigenvalues --   -0.39954  -0.38804  -0.37105  -0.36912  -0.36310
 Alpha  occ. eigenvalues --   -0.35354  -0.34819  -0.34488  -0.33999  -0.33960
 Alpha  occ. eigenvalues --   -0.33718  -0.33245  -0.32725  -0.32281  -0.31673
 Alpha  occ. eigenvalues --   -0.31548  -0.31396  -0.31000  -0.29397
 Alpha virt. eigenvalues --   -0.10712  -0.10507  -0.08477  -0.07507  -0.07338
 Alpha virt. eigenvalues --   -0.06800  -0.06550  -0.05506  -0.04632  -0.03800
 Alpha virt. eigenvalues --   -0.03335  -0.02776  -0.02629  -0.01848  -0.01133

 Mulliken charges:
               1
     1  N   -0.799740
     2  H    0.467202
     3  H    0.362889
     4  H    0.380068
     5  C   -0.103766
     6  H    0.244439
     7  C    0.648092
     8  C   -0.463138
     9  H    0.181443
    10  H    0.175971
    11  H    0.169157
    12  O   -0.561315
    13  N   -0.613515
    14  H    0.381022
    15  C   -0.026173
    16  H    0.185906
    17  C    0.617722
    18  C   -0.416383
    19  H    0.225083
    20  H    0.182636
    21  O   -0.568815
    22  C    0.020663
    23  C    0.002025
    24  H    0.223962
    25  C   -0.038084
    26  C    0.328930
    27  C   -0.220135
    28  H    0.201870
    29  N   -0.695131
    30  H    0.340350
    31  C   -0.172371
    32  H    0.148279
    33  C   -0.198401
    34  H    0.142175
    35  C   -0.153877
    36  H    0.147423
    37  N   -0.608656
    38  H    0.386056
    39  C   -0.090317
    40  H    0.198686
    41  C    0.622214
    42  C   -0.046894
    43  H    0.155773
    44  H    0.183640
    45  O   -0.538703
    46  O   -0.646795
    47  H    0.408776
    48  N   -0.656400
    49  H    0.403504
    50  C   -0.005548
    51  H    0.156685
    52  C    0.612232
    53  C   -0.092371
    54  H    0.189257
    55  O   -0.551055
    56  C   -0.497925
    57  H    0.193274
    58  H    0.125903
    59  H    0.150027
    60  C   -0.492920
    61  H    0.190972
    62  H    0.152010
    63  H    0.130288
    64  N   -0.599071
    65  H    0.342094
    66  C   -0.010153
    67  H    0.168344
    68  C    0.643272
    69  C   -0.494155
    70  H    0.179426
    71  H    0.186538
    72  H    0.160448
    73  O   -0.563505
    74  N   -0.620684
    75  H    0.372088
    76  C   -0.007658
    77  H    0.172166
    78  C    0.602792
    79  C   -0.333755
    80  H    0.205325
    81  H    0.174205
    82  O   -0.634627
    83  C   -0.319389
    84  H    0.145485
    85  H    0.209594
    86  C   -0.173953
    87  H    0.179536
    88  H    0.215969
    89  N   -0.616411
    90  H    0.363548
    91  N   -0.791667
    92  H    0.370353
    93  H    0.429996
    94  N   -0.773846
    95  H    0.376972
    96  H    0.378533
    97  C    0.837687
    98  O   -0.553669
 Sum of Mulliken charges =   1.00000

 Dipole moment (field-independent basis, Debye):
    X=              1.6397    Y=              3.1814    Z=             12.5430  Tot=             13.0436
 Quadrupole moment (field-independent basis, Debye-Ang):
   XX=           -226.0670   YY=           -236.0752   ZZ=           -169.3871
   XY=             -3.8533   XZ=             27.9375   YZ=              1.7181

 Normal termination of Gaussian 16 at Fri Jul  8 18:05:37 2022.
