 Gaussian 16, Revision C.01,
 Gaussian 16:  ES64L-G16RevC.01  3-Jul-2019

 -------------------------------------------------------------------
 # B3LYP/6-31G* guess=read geom=check nosymm integral(ultrafinegrid)
 -------------------------------------------------------------------

 ------------------------------------------------------
 Candidate Structure: Conf:966 Charge calc in gas phase
 ------------------------------------------------------
 Structure from the checkpoint file:  "conf-966.chk"
 Charge =  1 Multiplicity = 1

                          Input orientation:
 ---------------------------------------------------------------------
 Center     Atomic      Atomic             Coordinates (Angstroms)
 Number     Number       Type             X           Y           Z
 ---------------------------------------------------------------------
      1          7           0      -11.810891    4.635659    6.313273
      2          1           0      -12.091687    5.421482    5.720457
      3          1           0      -12.238073    4.755222    7.244078
      4          1           0      -12.100991    3.737560    5.835136
      5          6           0      -10.311230    4.479817    6.413063
      6          1           0       -9.851859    5.438038    6.162310
      7          6           0      -10.002754    3.381156    5.361426
      8          6           0       -9.922164    4.041539    7.847140
      9          1           0       -8.827953    4.024706    7.890711
     10          1           0      -10.260331    3.009699    8.000647
     11          8           0      -10.957947    2.699660    4.955806
     12          6           0      -10.502468    4.953781    8.907862
     13          6           0       -9.929816    6.207183    9.171725
     14          1           0       -9.021310    6.507856    8.653983
     15          6           0      -11.661935    4.577257    9.605438
     16          1           0      -12.088890    3.586934    9.451780
     17          6           0      -10.502662    7.062323   10.111833
     18          1           0      -10.041423    8.023925   10.316744
     19          6           0      -12.239084    5.438384   10.544895
     20          1           0      -13.127103    5.127610   11.087274
     21          6           0      -11.661102    6.681896   10.796457
     22          1           0      -12.102226    7.348993   11.530821
     23          7           0       -8.731752    3.244274    5.015688
     24          1           0       -7.974992    3.803096    5.424480
     25          6           0       -8.199444    2.207044    4.129807
     26          1           0       -8.595001    1.235833    4.449129
     27          6           0       -6.670889    2.257949    4.380562
     28          6           0       -8.562922    2.454522    2.656837
     29          1           0       -8.146325    1.669624    2.019060
     30          1           0       -8.166599    3.412496    2.308508
     31          1           0       -9.649560    2.451183    2.536906
     32          8           0       -6.193440    3.163283    5.075393
     33          7           0       -5.958202    1.287239    3.797371
     34          1           0       -6.381004    0.636726    3.135858
     35          6           0       -4.500301    1.286003    3.715471
     36          1           0       -4.157337    2.325392    3.735158
     37          6           0       -4.186188    0.649015    2.344263
     38          6           0       -3.852981    0.509602    4.873214
     39          1           0       -2.761295    0.521982    4.787526
     40          1           0       -4.187683   -0.532688    4.871672
     41          1           0       -4.128811    0.969542    5.826550
     42          8           0       -5.034068   -0.045671    1.780114
     43          7           0       -2.964930    0.917759    1.844649
     44          1           0       -2.245864    1.368910    2.403874
     45          6           0       -2.481041    0.396889    0.577653
     46          1           0       -3.045668   -0.510745    0.346672
     47          6           0       -0.982587    0.098298    0.776744
     48          6           0       -2.654645    1.430328   -0.580438
     49          1           0       -1.954377    2.254446   -0.398489
     50          1           0       -2.338757    0.945035   -1.511806
     51          8           0       -0.348060    0.689322    1.655018
     52          6           0       -4.060663    1.970103   -0.707715
     53          6           0       -4.423682    3.173782   -0.087616
     54          1           0       -3.667657    3.751093    0.439284
     55          6           0       -5.052069    1.268301   -1.403205
     56          1           0       -4.802345    0.335296   -1.902855
     57          6           0       -5.730764    3.652897   -0.132914
     58          1           0       -6.003183    4.592221    0.338898
     59          6           0       -6.364542    1.733264   -1.460794
     60          1           0       -7.120027    1.167829   -2.003643
     61          8           0       -7.990085    3.417593   -0.801826
     62          1           0       -8.541623    2.867910   -1.380373
     63          6           0       -6.709474    2.923382   -0.812954
     64          7           0       -0.443801   -0.779782   -0.086899
     65          1           0       -0.993450   -1.246464   -0.803823
     66          6           0        0.977831   -1.103850   -0.136815
     67          1           0        1.543109   -0.182538    0.033196
     68          6           0        1.215766   -1.635008   -1.564209
     69          6           0        1.339740   -2.149135    0.950088
     70          1           0        0.923136   -1.772240    1.892622
     71          1           0        0.803346   -3.076538    0.709220
     72          8           0        0.282973   -2.131076   -2.204807
     73          6           0        2.837253   -2.454099    1.159236
     74          1           0        3.267673   -2.791415    0.206799
     75          6           0        3.628208   -1.223375    1.631386
     76          1           0        3.215139   -0.828770    2.568477
     77          1           0        4.677710   -1.483502    1.807482
     78          1           0        3.619952   -0.407412    0.899417
     79          6           0        2.987233   -3.605350    2.166384
     80          1           0        2.575176   -3.327755    3.145345
     81          1           0        2.463218   -4.506476    1.826346
     82          1           0        4.042271   -3.864095    2.311297
     83          7           0        2.471922   -1.528241   -2.032604
     84          1           0        3.229518   -1.139630   -1.475803
     85          6           0        2.916645   -2.085172   -3.303646
     86          1           0        2.435485   -3.053293   -3.459171
     87          6           0        4.442847   -2.259132   -3.162664
     88          6           0        2.522528   -1.129084   -4.462535
     89          1           0        1.439894   -0.982304   -4.383718
     90          1           0        2.995175   -0.157040   -4.278203
     91          8           0        5.057726   -1.644071   -2.282921
     92          6           0        2.873781   -1.562395   -5.903193
     93          1           0        3.958479   -1.642054   -6.041770
     94          1           0        2.505327   -0.805813   -6.600720
     95          6           0        2.310017   -2.910926   -6.284422
     96          8           0        2.541166   -3.955371   -5.701294
     97          8           0        1.508382   -2.862803   -7.368622
     98          7           0        5.023309   -3.081403   -4.055148
     99          1           0        4.462900   -3.486323   -4.803781
    100          6           0        6.467253   -3.133149   -4.252689
    101          1           0        6.883926   -2.171116   -3.936073
    102          6           0        6.748176   -3.314535   -5.770248
    103          6           0        7.131577   -4.224137   -3.377573
    104          1           0        6.854478   -4.010986   -2.340352
    105          1           0        8.217851   -4.083356   -3.435188
    106          8           0        7.991803   -3.386454   -6.081930
    107          6           0        6.746633   -5.685928   -3.736485
    108          1           0        5.930484   -5.695434   -4.469628
    109          1           0        6.365653   -6.203943   -2.848161
    110          6           0        7.909189   -6.536788   -4.282175
    111          1           0        7.561203   -7.553198   -4.489891
    112          1           0        8.708710   -6.610216   -3.535930
    113          7           0        8.482240   -5.955261   -5.504396
    114          1           0        8.566093   -4.919061   -5.479230
    115          7           0        8.006392   -7.686279   -7.011651
    116          1           0        7.883363   -7.984355   -7.968068
    117          1           0        8.382565   -8.378280   -6.380430
    118          7           0        8.238505   -5.467958   -7.729700
    119          1           0        8.118959   -5.739629   -8.694040
    120          1           0        8.104561   -4.470698   -7.421038
    121          6           0        8.237974   -6.372648   -6.752818
    122          8           0        5.784746   -3.419880   -6.546182
    123          1           0        1.225601   -3.781727   -7.540002
 ---------------------------------------------------------------------

 SCF Done:  E(RB3LYP) =  -2974.04756766     A.U. after    1 cycles

 Alpha  occ. eigenvalues --  -19.25679 -19.23527 -19.23242 -19.20871 -19.18193
 Alpha  occ. eigenvalues --  -19.17501 -19.16650 -19.15642 -19.14467 -19.11994
 Alpha  occ. eigenvalues --  -19.11398 -14.58919 -14.48230 -14.44628 -14.43942
 Alpha  occ. eigenvalues --  -14.42055 -14.41696 -14.41545 -14.40652 -14.39527
 Alpha  occ. eigenvalues --  -14.37595 -10.42527 -10.40030 -10.39314 -10.37810
 Alpha  occ. eigenvalues --  -10.35641 -10.35322 -10.33810 -10.33631 -10.33605
 Alpha  occ. eigenvalues --  -10.32747 -10.31892 -10.31362 -10.30645 -10.30611
 Alpha  occ. eigenvalues --  -10.30274 -10.30251 -10.29990 -10.29869 -10.29617
 Alpha  occ. eigenvalues --  -10.29480 -10.29053 -10.28328 -10.27540 -10.26876
 Alpha  occ. eigenvalues --  -10.26444 -10.24966 -10.24895 -10.24317 -10.24299
 Alpha  occ. eigenvalues --  -10.24262 -10.24223 -10.24200 -10.23853 -10.23192
 Alpha  occ. eigenvalues --  -10.23165 -10.23042 -10.22502 -10.22372 -10.21934
 Alpha  occ. eigenvalues --  -10.20707 -10.20590  -1.18093  -1.14095  -1.13118
 Alpha  occ. eigenvalues --   -1.12560  -1.11334  -1.10173  -1.08583  -1.07993
 Alpha  occ. eigenvalues --   -1.07462  -1.06118  -1.04890  -1.04861  -1.04802
 Alpha  occ. eigenvalues --   -1.00688  -0.98688  -0.97670  -0.97280  -0.97177
 Alpha  occ. eigenvalues --   -0.96206  -0.96025  -0.95651  -0.94173  -0.92676
 Alpha  occ. eigenvalues --   -0.90530  -0.88148  -0.85904  -0.85533  -0.85138
 Alpha  occ. eigenvalues --   -0.84259  -0.83631  -0.82885  -0.82623  -0.79970
 Alpha  occ. eigenvalues --   -0.79864  -0.79136  -0.78283  -0.77388  -0.75941
 Alpha  occ. eigenvalues --   -0.75463  -0.73333  -0.73147  -0.72643  -0.71558
 Alpha  occ. eigenvalues --   -0.71467  -0.71327  -0.71280  -0.69941  -0.69799
 Alpha  occ. eigenvalues --   -0.69609  -0.69070  -0.68130  -0.67389  -0.66335
 Alpha  occ. eigenvalues --   -0.65509  -0.64858  -0.64656  -0.64516  -0.63887
 Alpha  occ. eigenvalues --   -0.63447  -0.62647  -0.62410  -0.62326  -0.61751
 Alpha  occ. eigenvalues --   -0.61251  -0.60874  -0.59957  -0.59632  -0.59396
 Alpha  occ. eigenvalues --   -0.58530  -0.58233  -0.57051  -0.56972  -0.56672
 Alpha  occ. eigenvalues --   -0.56258  -0.56018  -0.55554  -0.55125  -0.54439
 Alpha  occ. eigenvalues --   -0.54187  -0.53877  -0.53233  -0.53061  -0.52999
 Alpha  occ. eigenvalues --   -0.52932  -0.52867  -0.52387  -0.52008  -0.51818
 Alpha  occ. eigenvalues --   -0.51743  -0.51402  -0.51196  -0.50846  -0.50552
 Alpha  occ. eigenvalues --   -0.50397  -0.50296  -0.49917  -0.49777  -0.49120
 Alpha  occ. eigenvalues --   -0.49006  -0.48642  -0.48420  -0.47964  -0.47758
 Alpha  occ. eigenvalues --   -0.47632  -0.47529  -0.47367  -0.47076  -0.47017
 Alpha  occ. eigenvalues --   -0.46885  -0.46460  -0.46324  -0.45976  -0.45824
 Alpha  occ. eigenvalues --   -0.45626  -0.45389  -0.45377  -0.45119  -0.45103
 Alpha  occ. eigenvalues --   -0.44792  -0.44691  -0.44487  -0.44136  -0.43701
 Alpha  occ. eigenvalues --   -0.43504  -0.43324  -0.42961  -0.42300  -0.42186
 Alpha  occ. eigenvalues --   -0.41667  -0.41522  -0.41149  -0.41005  -0.40685
 Alpha  occ. eigenvalues --   -0.40410  -0.40305  -0.40193  -0.39938  -0.39497
 Alpha  occ. eigenvalues --   -0.39038  -0.38919  -0.38570  -0.38482  -0.38167
 Alpha  occ. eigenvalues --   -0.37932  -0.37810  -0.36809  -0.36348  -0.36304
 Alpha  occ. eigenvalues --   -0.36078  -0.35887  -0.35870  -0.35163  -0.35155
 Alpha  occ. eigenvalues --   -0.35049  -0.34112  -0.32531  -0.31843  -0.31643
 Alpha  occ. eigenvalues --   -0.31077  -0.30862  -0.30348  -0.30051  -0.29751
 Alpha  occ. eigenvalues --   -0.29006  -0.28573  -0.28346  -0.27374  -0.26962
 Alpha  occ. eigenvalues --   -0.26272  -0.25341
 Alpha virt. eigenvalues --   -0.12584  -0.12012  -0.10346  -0.09326  -0.06393
 Alpha virt. eigenvalues --   -0.05513  -0.04670  -0.04271  -0.04115  -0.03695
 Alpha virt. eigenvalues --   -0.02724  -0.02293  -0.02094  -0.01380  -0.01306

 Mulliken charges:
               1
     1  N   -0.751446
     2  H    0.414622
     3  H    0.403758
     4  H    0.426557
     5  C   -0.111533
     6  H    0.212921
     7  C    0.658016
     8  C   -0.385346
     9  H    0.211152
    10  H    0.193615
    11  O   -0.545391
    12  C    0.138866
    13  C   -0.181493
    14  H    0.148223
    15  C   -0.229628
    16  H    0.150661
    17  C   -0.122432
    18  H    0.167705
    19  C   -0.120319
    20  H    0.166786
    21  C   -0.123821
    22  H    0.168757
    23  N   -0.613148
    24  H    0.373165
    25  C   -0.055117
    26  H    0.193756
    27  C    0.625228
    28  C   -0.459488
    29  H    0.185008
    30  H    0.180207
    31  H    0.180676
    32  O   -0.550896
    33  N   -0.609333
    34  H    0.366318
    35  C   -0.055619
    36  H    0.183363
    37  C    0.633959
    38  C   -0.446526
    39  H    0.169218
    40  H    0.167564
    41  H    0.174560
    42  O   -0.543033
    43  N   -0.611675
    44  H    0.354362
    45  C   -0.054723
    46  H    0.182780
    47  C    0.630789
    48  C   -0.365765
    49  H    0.161800
    50  H    0.162960
    51  O   -0.552656
    52  C    0.184618
    53  C   -0.192917
    54  H    0.128648
    55  C   -0.166740
    56  H    0.135272
    57  C   -0.167018
    58  H    0.133344
    59  C   -0.190982
    60  H    0.125835
    61  O   -0.655522
    62  H    0.409822
    63  C    0.348611
    64  N   -0.620907
    65  H    0.354846
    66  C   -0.051615
    67  H    0.174805
    68  C    0.618717
    69  C   -0.253867
    70  H    0.158407
    71  H    0.141897
    72  O   -0.555685
    73  C   -0.089902
    74  H    0.139190
    75  C   -0.447848
    76  H    0.147100
    77  H    0.153510
    78  H    0.142321
    79  C   -0.444083
    80  H    0.140282
    81  H    0.142196
    82  H    0.146824
    83  N   -0.623855
    84  H    0.365487
    85  C   -0.054303
    86  H    0.199919
    87  C    0.596659
    88  C   -0.274136
    89  H    0.175243
    90  H    0.156489
    91  O   -0.559459
    92  C   -0.385288
    93  H    0.218349
    94  H    0.172941
    95  C    0.614299
    96  O   -0.478114
    97  O   -0.558255
    98  N   -0.617165
    99  H    0.387344
   100  C   -0.062285
   101  H    0.179654
   102  C    0.594259
   103  C   -0.285072
   104  H    0.166634
   105  H    0.151418
   106  O   -0.645859
   107  C   -0.271623
   108  H    0.167882
   109  H    0.150362
   110  C   -0.169495
   111  H    0.146903
   112  H    0.171485
   113  N   -0.608144
   114  H    0.406173
   115  N   -0.751466
   116  H    0.358271
   117  H    0.364587
   118  N   -0.762235
   119  H    0.342619
   120  H    0.422320
   121  C    0.762071
   122  O   -0.561150
   123  H    0.409417
 Sum of Mulliken charges =   1.00000

 Dipole moment (field-independent basis, Debye):
    X=            -35.9010    Y=              6.6201    Z=             18.4647  Tot=             40.9103
 Quadrupole moment (field-independent basis, Debye-Ang):
   XX=            202.0892   YY=           -151.1981   ZZ=            -84.9280
   XY=           -319.4160   XZ=           -358.9488   YZ=            225.5849

 Normal termination of Gaussian 16 at Mon Jul 18 02:03:26 2022.
