 Gaussian 16, Revision C.01,
 Gaussian 16:  ES64L-G16RevC.01  3-Jul-2019

 -------------------------------------------------------------------
 # B3LYP/6-31G* guess=read geom=check nosymm integral(ultrafinegrid)
 -------------------------------------------------------------------

 ------------------------------------------------------
 Candidate Structure: Conf:684 Charge calc in gas phase
 ------------------------------------------------------
 Structure from the checkpoint file:  "conf-684.chk"
 Charge =  1 Multiplicity = 1

                          Input orientation:
 ---------------------------------------------------------------------
 Center     Atomic      Atomic             Coordinates (Angstroms)
 Number     Number       Type             X           Y           Z
 ---------------------------------------------------------------------
      1          7           0      -11.821753    3.560540    3.244533
      2          1           0      -12.149376    2.805751    2.633495
      3          1           0      -12.560311    4.275296    3.332732
      4          1           0      -11.571614    3.131663    4.169402
      5          6           0      -10.527923    4.171247    2.779957
      6          1           0      -10.483941    4.136709    1.689123
      7          6           0       -9.450035    3.283788    3.437538
      8          6           0      -10.449427    5.638456    3.258730
      9          1           0       -9.478753    6.038996    2.946984
     10          1           0      -10.459473    5.647492    4.355951
     11          8           0       -9.796917    2.647915    4.445105
     12          6           0      -11.596431    6.474037    2.720742
     13          6           0      -11.678752    6.792597    1.354660
     14          1           0      -10.893404    6.468406    0.673761
     15          6           0      -12.625561    6.896365    3.577910
     16          1           0      -12.577409    6.659235    4.639728
     17          6           0      -12.752623    7.533260    0.864041
     18          1           0      -12.796511    7.783211   -0.192003
     19          6           0      -13.708939    7.630465    3.082595
     20          1           0      -14.495407    7.953008    3.758599
     21          6           0      -13.771630    7.951206    1.727057
     22          1           0      -14.607570    8.527442    1.342005
     23          7           0       -8.237175    3.308665    2.901001
     24          1           0       -8.002284    3.869199    2.080455
     25          6           0       -7.088875    2.574245    3.438248
     26          1           0       -7.036515    2.742099    4.519827
     27          6           0       -5.861816    3.185459    2.741436
     28          6           0       -7.183408    1.061984    3.152126
     29          1           0       -6.241455    0.564983    3.400522
     30          1           0       -7.383390    0.893867    2.089365
     31          1           0       -7.997330    0.625703    3.737619
     32          8           0       -5.988577    3.733822    1.645551
     33          7           0       -4.694469    3.069204    3.423338
     34          1           0       -4.702105    2.403940    4.190955
     35          6           0       -3.399771    3.119462    2.741758
     36          1           0       -3.488711    3.841334    1.926880
     37          6           0       -3.108291    1.706730    2.184776
     38          6           0       -2.301690    3.546803    3.726047
     39          1           0       -1.330075    3.602758    3.225682
     40          1           0       -2.217421    2.824924    4.546715
     41          1           0       -2.531737    4.528993    4.150131
     42          8           0       -3.619480    0.718155    2.708946
     43          7           0       -2.271026    1.659800    1.118733
     44          1           0       -1.679951    2.455493    0.894072
     45          6           0       -1.815266    0.399960    0.554199
     46          1           0       -2.075327   -0.383260    1.272441
     47          6           0       -0.292175    0.509313    0.377151
     48          6           0       -2.490243    0.069151   -0.816450
     49          1           0       -2.101401    0.753689   -1.579873
     50          1           0       -2.172270   -0.937826   -1.111956
     51          8           0        0.252666    1.621171    0.333635
     52          6           0       -4.000579    0.154469   -0.801312
     53          6           0       -4.801702   -0.984894   -0.643494
     54          1           0       -4.331553   -1.957265   -0.512651
     55          6           0       -4.643304    1.387751   -0.973981
     56          1           0       -4.050092    2.289779   -1.091333
     57          6           0       -6.193046   -0.909836   -0.670030
     58          1           0       -6.806779   -1.798750   -0.561107
     59          6           0       -6.032613    1.482064   -1.005123
     60          1           0       -6.506728    2.457081   -1.106937
     61          8           0       -8.186841    0.370880   -0.868878
     62          1           0       -8.453780    1.240410   -1.206169
     63          6           0       -6.809067    0.328361   -0.864056
     64          7           0        0.379293   -0.656516    0.255958
     65          1           0       -0.151302   -1.512549    0.146823
     66          6           0        1.823893   -0.724793   -0.029690
     67          1           0        2.284620    0.078656    0.550149
     68          6           0        2.057130   -0.461564   -1.535105
     69          6           0        2.380997   -2.077251    0.422363
     70          1           0        2.145816   -2.184720    1.491351
     71          1           0        1.851382   -2.874577   -0.115924
     72          8           0        2.161255   -1.370318   -2.353099
     73          6           0        3.901388   -2.269391    0.218171
     74          1           0        4.075412   -2.374427   -0.859138
     75          6           0        4.730686   -1.074678    0.718212
     76          1           0        4.495346   -0.836383    1.765435
     77          1           0        5.800794   -1.305006    0.666040
     78          1           0        4.566779   -0.177964    0.110831
     79          6           0        4.340292   -3.569708    0.909037
     80          1           0        4.217415   -3.497644    1.998101
     81          1           0        3.751821   -4.428278    0.561772
     82          1           0        5.395763   -3.784423    0.706221
     83          7           0        2.089696    0.856633   -1.860183
     84          1           0        1.938536    1.533029   -1.121795
     85          6           0        2.426007    1.307347   -3.192092
     86          1           0        1.905302    0.650397   -3.900703
     87          6           0        3.953524    1.167732   -3.441087
     88          6           0        1.983708    2.768547   -3.405206
     89          1           0        2.551331    3.413762   -2.721995
     90          1           0        2.257992    3.065786   -4.420788
     91          8           0        4.749627    1.047393   -2.513625
     92          6           0        0.482205    3.022902   -3.172917
     93          1           0        0.294673    4.100687   -3.273623
     94          1           0        0.177912    2.727815   -2.166266
     95          6           0       -0.442429    2.310674   -4.134421
     96          8           0       -1.417220    1.655544   -3.821932
     97          8           0       -0.083526    2.496805   -5.427631
     98          7           0        4.313081    1.241851   -4.744727
     99          1           0        3.603403    1.247881   -5.467834
    100          6           0        5.698135    1.127186   -5.207182
    101          1           0        6.330853    1.743341   -4.564938
    102          6           0        5.728114    1.702518   -6.672693
    103          6           0        6.160706   -0.344225   -5.204194
    104          1           0        5.400561   -0.887335   -5.775791
    105          1           0        6.159460   -0.753675   -4.188913
    106          8           0        6.252835    2.798361   -6.862671
    107          6           0        7.553669   -0.516459   -5.862470
    108          1           0        8.332320   -0.663894   -5.107142
    109          1           0        7.824105    0.397445   -6.406590
    110          6           0        7.575147   -1.655977   -6.889101
    111          1           0        7.242191   -2.611641   -6.460179
    112          1           0        8.590644   -1.804058   -7.285577
    113          7           0        6.667292   -1.220472   -7.953477
    114          1           0        6.124466   -0.320151   -7.743385
    115          7           0        6.743533   -3.124212   -9.301799
    116          1           0        6.544395   -3.529131  -10.205635
    117          1           0        7.619052   -3.405368   -8.883229
    118          7           0        5.264090   -1.358234   -9.750329
    119          1           0        5.157349   -1.653840  -10.710626
    120          1           0        5.042672   -0.383215   -9.560651
    121          6           0        6.261052   -1.891640   -8.999459
    122          8           0        5.158461    0.928418   -7.543927
    123          1           0       -0.743597    2.020786   -5.968054
 ---------------------------------------------------------------------

 SCF Done:  E(RB3LYP) =  -2974.00549801     A.U. after    1 cycles

 Alpha  occ. eigenvalues --  -19.25889 -19.24323 -19.23982 -19.21703 -19.18728
 Alpha  occ. eigenvalues --  -19.18607 -19.18471 -19.14789 -19.13099 -19.09810
 Alpha  occ. eigenvalues --  -19.08659 -14.60272 -14.49108 -14.45578 -14.44884
 Alpha  occ. eigenvalues --  -14.43785 -14.42785 -14.42480 -14.42027 -14.39004
 Alpha  occ. eigenvalues --  -14.37572 -10.42990 -10.40674 -10.40159 -10.38480
 Alpha  occ. eigenvalues --  -10.36803 -10.35566 -10.35417 -10.34177 -10.33964
 Alpha  occ. eigenvalues --  -10.32245 -10.31872 -10.31207 -10.30932 -10.30728
 Alpha  occ. eigenvalues --  -10.30429 -10.30317 -10.30208 -10.30199 -10.29922
 Alpha  occ. eigenvalues --  -10.29616 -10.28628 -10.27704 -10.27223 -10.26665
 Alpha  occ. eigenvalues --  -10.26583 -10.26001 -10.24772 -10.24631 -10.24491
 Alpha  occ. eigenvalues --  -10.24446 -10.24363 -10.24320 -10.24097 -10.23956
 Alpha  occ. eigenvalues --  -10.22736 -10.22712 -10.22565 -10.21778 -10.20430
 Alpha  occ. eigenvalues --  -10.20249 -10.19657  -1.18615  -1.15104  -1.14128
 Alpha  occ. eigenvalues --   -1.13326  -1.11704  -1.10606  -1.09813  -1.09030
 Alpha  occ. eigenvalues --   -1.06709  -1.05962  -1.05529  -1.04739  -1.02229
 Alpha  occ. eigenvalues --   -1.01506  -0.99056  -0.98697  -0.98302  -0.97648
 Alpha  occ. eigenvalues --   -0.97340  -0.95758  -0.93940  -0.93320  -0.93236
 Alpha  occ. eigenvalues --   -0.90666  -0.88543  -0.86357  -0.85830  -0.85400
 Alpha  occ. eigenvalues --   -0.84587  -0.84171  -0.83516  -0.83090  -0.80141
 Alpha  occ. eigenvalues --   -0.79981  -0.79698  -0.78415  -0.77324  -0.76080
 Alpha  occ. eigenvalues --   -0.75817  -0.74125  -0.73597  -0.73213  -0.71896
 Alpha  occ. eigenvalues --   -0.71605  -0.71202  -0.70913  -0.70199  -0.70109
 Alpha  occ. eigenvalues --   -0.69769  -0.69464  -0.68132  -0.67478  -0.67014
 Alpha  occ. eigenvalues --   -0.65914  -0.65666  -0.65534  -0.64615  -0.64232
 Alpha  occ. eigenvalues --   -0.64158  -0.63666  -0.63202  -0.62696  -0.62232
 Alpha  occ. eigenvalues --   -0.61780  -0.61071  -0.59843  -0.59800  -0.58963
 Alpha  occ. eigenvalues --   -0.58871  -0.58360  -0.57741  -0.57335  -0.57241
 Alpha  occ. eigenvalues --   -0.56677  -0.56558  -0.56344  -0.55625  -0.55259
 Alpha  occ. eigenvalues --   -0.54587  -0.54319  -0.54164  -0.53765  -0.53531
 Alpha  occ. eigenvalues --   -0.53317  -0.53260  -0.53181  -0.52812  -0.52630
 Alpha  occ. eigenvalues --   -0.52347  -0.51850  -0.51452  -0.51237  -0.50942
 Alpha  occ. eigenvalues --   -0.50797  -0.50389  -0.50055  -0.49691  -0.49394
 Alpha  occ. eigenvalues --   -0.49101  -0.49040  -0.48801  -0.48284  -0.48118
 Alpha  occ. eigenvalues --   -0.47922  -0.47623  -0.47358  -0.47210  -0.47122
 Alpha  occ. eigenvalues --   -0.46699  -0.46478  -0.46329  -0.46101  -0.46024
 Alpha  occ. eigenvalues --   -0.45780  -0.45660  -0.45433  -0.45288  -0.44895
 Alpha  occ. eigenvalues --   -0.44779  -0.44274  -0.44188  -0.44130  -0.43887
 Alpha  occ. eigenvalues --   -0.43477  -0.43184  -0.42750  -0.42420  -0.41848
 Alpha  occ. eigenvalues --   -0.41723  -0.41542  -0.41179  -0.40806  -0.40658
 Alpha  occ. eigenvalues --   -0.40465  -0.39971  -0.39854  -0.39481  -0.39379
 Alpha  occ. eigenvalues --   -0.39237  -0.38989  -0.38583  -0.37945  -0.37706
 Alpha  occ. eigenvalues --   -0.37497  -0.36968  -0.36596  -0.36464  -0.36409
 Alpha  occ. eigenvalues --   -0.36179  -0.36075  -0.35752  -0.35496  -0.35387
 Alpha  occ. eigenvalues --   -0.35196  -0.35076  -0.33680  -0.32663  -0.32544
 Alpha  occ. eigenvalues --   -0.32151  -0.32021  -0.31688  -0.30322  -0.29126
 Alpha  occ. eigenvalues --   -0.27926  -0.27304  -0.27226  -0.26686  -0.25511
 Alpha  occ. eigenvalues --   -0.24228  -0.22060
 Alpha virt. eigenvalues --   -0.13229  -0.12021  -0.10854  -0.10080  -0.07550
 Alpha virt. eigenvalues --   -0.05577  -0.05308  -0.05200  -0.04934  -0.04522
 Alpha virt. eigenvalues --   -0.04081  -0.03554  -0.03352  -0.02175  -0.01700

 Mulliken charges:
               1
     1  N   -0.737727
     2  H    0.419819
     3  H    0.407155
     4  H    0.426070
     5  C   -0.123226
     6  H    0.207466
     7  C    0.669529
     8  C   -0.378471
     9  H    0.210066
    10  H    0.191386
    11  O   -0.543106
    12  C    0.133210
    13  C   -0.182528
    14  H    0.141016
    15  C   -0.216137
    16  H    0.147933
    17  C   -0.123075
    18  H    0.166763
    19  C   -0.120924
    20  H    0.167571
    21  C   -0.123449
    22  H    0.169487
    23  N   -0.616372
    24  H    0.364192
    25  C   -0.051240
    26  H    0.186374
    27  C    0.622307
    28  C   -0.472161
    29  H    0.205221
    30  H    0.186412
    31  H    0.177891
    32  O   -0.534309
    33  N   -0.572720
    34  H    0.344201
    35  C   -0.090427
    36  H    0.189500
    37  C    0.632702
    38  C   -0.459663
    39  H    0.177533
    40  H    0.166885
    41  H    0.174501
    42  O   -0.534151
    43  N   -0.602863
    44  H    0.351022
    45  C   -0.061986
    46  H    0.187765
    47  C    0.642224
    48  C   -0.394641
    49  H    0.206886
    50  H    0.147913
    51  O   -0.560744
    52  C    0.191790
    53  C   -0.182457
    54  H    0.129591
    55  C   -0.175678
    56  H    0.133522
    57  C   -0.159188
    58  H    0.142340
    59  C   -0.189514
    60  H    0.116678
    61  O   -0.660571
    62  H    0.397866
    63  C    0.343172
    64  N   -0.605090
    65  H    0.340574
    66  C   -0.069800
    67  H    0.180558
    68  C    0.647101
    69  C   -0.274723
    70  H    0.133480
    71  H    0.144279
    72  O   -0.536882
    73  C   -0.077325
    74  H    0.164577
    75  C   -0.467043
    76  H    0.127775
    77  H    0.147875
    78  H    0.178346
    79  C   -0.446183
    80  H    0.136282
    81  H    0.139044
    82  H    0.146129
    83  N   -0.603499
    84  H    0.356856
    85  C   -0.051578
    86  H    0.168865
    87  C    0.636883
    88  C   -0.305820
    89  H    0.164423
    90  H    0.185648
    91  O   -0.537317
    92  C   -0.354960
    93  H    0.177694
    94  H    0.182569
    95  C    0.573385
    96  O   -0.464576
    97  O   -0.554913
    98  N   -0.622265
    99  H    0.336757
   100  C    0.021354
   101  H    0.163750
   102  C    0.513818
   103  C   -0.292705
   104  H    0.145114
   105  H    0.166550
   106  O   -0.520860
   107  C   -0.323057
   108  H    0.158547
   109  H    0.188373
   110  C   -0.146778
   111  H    0.167720
   112  H    0.153608
   113  N   -0.621632
   114  H    0.444003
   115  N   -0.751532
   116  H    0.357712
   117  H    0.371089
   118  N   -0.757160
   119  H    0.346329
   120  H    0.399116
   121  C    0.755846
   122  O   -0.658428
   123  H    0.413464
 Sum of Mulliken charges =   1.00000

 Dipole moment (field-independent basis, Debye):
    X=            -40.9905    Y=              9.9584    Z=              1.1693  Tot=             42.1991
 Quadrupole moment (field-independent basis, Debye-Ang):
   XX=            223.5449   YY=           -254.9001   ZZ=           -176.5972
   XY=           -296.4870   XZ=           -194.5422   YZ=            133.9909

 Normal termination of Gaussian 16 at Mon Jul 18 02:03:27 2022.
