 Gaussian 16, Revision C.01,
 Gaussian 16:  ES64L-G16RevC.01  3-Jul-2019

 -------------------------------------------------------------------
 # B3LYP/6-31G* guess=read geom=check nosymm integral(ultrafinegrid)
 -------------------------------------------------------------------

 ------------------------------------------------------
 Candidate Structure: Conf:883 Charge calc in gas phase
 ------------------------------------------------------
 Structure from the checkpoint file:  "conf-883.chk"
 Charge =  1 Multiplicity = 1

                          Input orientation:
 ---------------------------------------------------------------------
 Center     Atomic      Atomic             Coordinates (Angstroms)
 Number     Number       Type             X           Y           Z
 ---------------------------------------------------------------------
      1          7           0       -2.559994    3.066185    2.921491
      2          1           0       -2.217201    3.083183    1.924591
      3          1           0       -1.745354    3.246670    3.521714
      4          1           0       -3.291351    3.788181    3.092450
      5          6           0       -3.210648    1.759422    3.287466
      6          1           0       -2.989267    1.031578    2.505227
      7          6           0       -4.724155    2.076065    3.381125
      8          6           0       -2.704100    1.255473    4.667541
      9          1           0       -3.139178    0.262299    4.816779
     10          1           0       -3.118239    1.908315    5.445572
     11          8           0       -5.068269    3.243910    3.597007
     12          6           0       -1.194301    1.210258    4.776574
     13          6           0       -0.491855    2.274875    5.363907
     14          1           0       -1.040852    3.095899    5.823742
     15          6           0       -0.464108    0.127697    4.262291
     16          1           0       -0.999164   -0.721056    3.842761
     17          6           0        0.906006    2.266721    5.418023
     18          1           0        1.432075    3.092706    5.887985
     19          6           0        0.930593    0.115513    4.315097
     20          1           0        1.484900   -0.724385    3.903985
     21          6           0        1.617844    1.191512    4.887484
     22          1           0        2.702832    1.179636    4.933058
     23          7           0       -5.521592    1.008366    3.282439
     24          1           0       -5.085593    0.108376    3.069115
     25          6           0       -6.957125    0.974889    3.620198
     26          1           0       -7.067309    1.306671    4.661059
     27          6           0       -7.286557   -0.537726    3.596149
     28          6           0       -7.801603    1.881741    2.721274
     29          1           0       -8.851137    1.864514    3.036369
     30          1           0       -7.737618    1.583699    1.668718
     31          1           0       -7.446718    2.910816    2.806233
     32          8           0       -6.505987   -1.318974    4.143859
     33          7           0       -8.368002   -0.960119    2.899134
     34          1           0       -8.915262   -0.288543    2.376434
     35          6           0       -8.530568   -2.382949    2.533203
     36          1           0       -8.090245   -2.955591    3.353439
     37          6           0       -7.707162   -2.611635    1.232125
     38          6           0       -9.998773   -2.738801    2.346447
     39          1           0      -10.095378   -3.797722    2.093093
     40          1           0      -10.441130   -2.169967    1.522812
     41          1           0      -10.557429   -2.543865    3.266377
     42          8           0       -8.240374   -2.808445    0.149335
     43          7           0       -6.355078   -2.471986    1.401093
     44          1           0       -6.024099   -2.252968    2.337921
     45          6           0       -5.464653   -2.073256    0.309714
     46          1           0       -5.355176   -2.903298   -0.397344
     47          6           0       -4.101359   -1.775621    0.959253
     48          6           0       -6.045352   -0.833761   -0.451321
     49          1           0       -6.873273   -1.206054   -1.060611
     50          1           0       -6.481729   -0.177195    0.308422
     51          8           0       -4.025513   -1.161907    2.036938
     52          6           0       -5.063134   -0.032261   -1.269146
     53          6           0       -4.762455    1.280973   -0.883623
     54          1           0       -5.276158    1.714854   -0.029117
     55          6           0       -4.419443   -0.548481   -2.401470
     56          1           0       -4.662777   -1.546749   -2.759031
     57          6           0       -3.825936    2.046123   -1.568226
     58          1           0       -3.587183    3.055995   -1.258055
     59          6           0       -3.452116    0.192012   -3.081064
     60          1           0       -2.928388   -0.241141   -3.929873
     61          8           0       -2.131497    2.240521   -3.204705
     62          1           0       -1.734160    1.754856   -3.946437
     63          6           0       -3.141250    1.476679   -2.638928
     64          7           0       -3.014557   -2.255493    0.324205
     65          1           0       -3.112537   -2.619872   -0.614795
     66          6           0       -1.659263   -2.121482    0.841600
     67          1           0       -1.762345   -1.702467    1.843117
     68          6           0       -0.825710   -1.170257   -0.034325
     69          6           0       -0.944927   -3.493097    0.906180
     70          1           0       -0.868582   -3.881885   -0.119034
     71          1           0        0.086283   -3.320592    1.243945
     72          8           0       -1.012924   -1.072047   -1.239361
     73          6           0       -1.613136   -4.548833    1.809298
     74          1           0       -2.633241   -4.717724    1.436091
     75          6           0       -0.846918   -5.876167    1.700488
     76          1           0        0.180418   -5.768793    2.071086
     77          1           0       -1.334257   -6.658676    2.292383
     78          1           0       -0.793464   -6.225398    0.662548
     79          6           0       -1.714392   -4.094867    3.273705
     80          1           0       -0.723161   -3.851422    3.679396
     81          1           0       -2.361443   -3.218080    3.392524
     82          1           0       -2.136151   -4.892072    3.895670
     83          7           0        0.147670   -0.492925    0.662303
     84          1           0        0.371506   -0.881768    1.575329
     85          6           0        1.357951   -0.024299   -0.008369
     86          1           0        1.138252   -0.005915   -1.076946
     87          6           0        2.483383   -1.031319    0.327561
     88          6           0        1.819526    1.384382    0.463943
     89          1           0        2.503186    1.273303    1.313480
     90          1           0        2.397368    1.842895   -0.344112
     91          8           0        2.422798   -1.684670    1.380300
     92          6           0        0.707097    2.333140    0.925920
     93          1           0        1.153321    3.312869    1.149718
     94          1           0        0.264692    1.973570    1.858984
     95          6           0       -0.433747    2.589557   -0.031269
     96          8           0       -1.546775    2.969886    0.337653
     97          8           0       -0.117819    2.412940   -1.301702
     98          7           0        3.500090   -1.075659   -0.539430
     99          1           0        3.528782   -0.511516   -1.390140
    100          6           0        4.756529   -1.791801   -0.334089
    101          1           0        5.062063   -1.692202    0.712092
    102          6           0        5.789314   -1.109434   -1.274462
    103          6           0        4.579323   -3.294244   -0.686979
    104          1           0        4.488285   -3.384693   -1.777794
    105          1           0        3.615161   -3.600814   -0.266562
    106          8           0        5.343021   -0.498203   -2.258344
    107          6           0        5.626274   -4.286495   -0.146773
    108          1           0        5.229106   -5.301965   -0.295572
    109          1           0        5.716563   -4.163055    0.940521
    110          6           0        7.054390   -4.230165   -0.708861
    111          1           0        7.662431   -5.003311   -0.221863
    112          1           0        7.488461   -3.253692   -0.506489
    113          7           0        7.103494   -4.468663   -2.162861
    114          1           0        6.625175   -5.294523   -2.499958
    115          7           0        8.214027   -2.535693   -2.873940
    116          1           0        8.755249   -2.094470   -3.605180
    117          1           0        7.778240   -1.894680   -2.103983
    118          7           0        7.888660   -4.337715   -4.324864
    119          1           0        8.305498   -3.807110   -5.075787
    120          1           0        7.993268   -5.340546   -4.387181
    121          6           0        7.750098   -3.751936   -3.099225
    122          8           0        7.013313   -1.313201   -0.966991
    123          1           0       -0.902391    2.525391   -1.901260
 ---------------------------------------------------------------------

 SCF Done:  E(RB3LYP) =  -2974.06253806     A.U. after    1 cycles

 Alpha  occ. eigenvalues --  -19.27960 -19.27578 -19.24066 -19.22929 -19.22001
 Alpha  occ. eigenvalues --  -19.20621 -19.19955 -19.19041 -19.18048 -19.14251
 Alpha  occ. eigenvalues --  -19.13777 -14.53778 -14.46750 -14.46441 -14.45925
 Alpha  occ. eigenvalues --  -14.45811 -14.45577 -14.43440 -14.43384 -14.42814
 Alpha  occ. eigenvalues --  -14.41371 -10.42112 -10.42022 -10.39765 -10.38854
 Alpha  occ. eigenvalues --  -10.38136 -10.36815 -10.36039 -10.35943 -10.34958
 Alpha  occ. eigenvalues --  -10.33331 -10.32796 -10.32294 -10.31931 -10.31641
 Alpha  occ. eigenvalues --  -10.31169 -10.30712 -10.30438 -10.29988 -10.29269
 Alpha  occ. eigenvalues --  -10.28974 -10.28901 -10.28585 -10.28470 -10.28215
 Alpha  occ. eigenvalues --  -10.28100 -10.27531 -10.27255 -10.27149 -10.27034
 Alpha  occ. eigenvalues --  -10.26996 -10.26917 -10.26849 -10.26701 -10.26480
 Alpha  occ. eigenvalues --  -10.26245 -10.26112 -10.25872 -10.24886 -10.24748
 Alpha  occ. eigenvalues --  -10.24104 -10.23771  -1.19618  -1.14929  -1.14756
 Alpha  occ. eigenvalues --   -1.13553  -1.12936  -1.11664  -1.10736  -1.10710
 Alpha  occ. eigenvalues --   -1.10481  -1.09517  -1.08608  -1.07451  -1.02712
 Alpha  occ. eigenvalues --   -1.01946  -1.01509  -1.00143  -1.00130  -0.99553
 Alpha  occ. eigenvalues --   -0.99500  -0.97800  -0.97357  -0.95335  -0.93282
 Alpha  occ. eigenvalues --   -0.89943  -0.89125  -0.88150  -0.87421  -0.86364
 Alpha  occ. eigenvalues --   -0.85990  -0.84129  -0.83897  -0.83718  -0.82729
 Alpha  occ. eigenvalues --   -0.82605  -0.81780  -0.80341  -0.79206  -0.76868
 Alpha  occ. eigenvalues --   -0.75113  -0.74979  -0.74756  -0.74620  -0.73536
 Alpha  occ. eigenvalues --   -0.72483  -0.71703  -0.70927  -0.70287  -0.70142
 Alpha  occ. eigenvalues --   -0.69470  -0.69061  -0.68555  -0.68202  -0.68143
 Alpha  occ. eigenvalues --   -0.67900  -0.67159  -0.67074  -0.66864  -0.66596
 Alpha  occ. eigenvalues --   -0.65527  -0.64764  -0.64198  -0.63945  -0.63280
 Alpha  occ. eigenvalues --   -0.63223  -0.62537  -0.62027  -0.61179  -0.60532
 Alpha  occ. eigenvalues --   -0.59902  -0.59337  -0.58750  -0.58427  -0.58096
 Alpha  occ. eigenvalues --   -0.57897  -0.57351  -0.57004  -0.56711  -0.56355
 Alpha  occ. eigenvalues --   -0.56041  -0.55709  -0.55469  -0.54924  -0.54799
 Alpha  occ. eigenvalues --   -0.54633  -0.54449  -0.54242  -0.54096  -0.53651
 Alpha  occ. eigenvalues --   -0.53572  -0.53335  -0.53011  -0.52485  -0.52123
 Alpha  occ. eigenvalues --   -0.51987  -0.51631  -0.51384  -0.51322  -0.51036
 Alpha  occ. eigenvalues --   -0.50716  -0.50414  -0.50267  -0.50077  -0.49886
 Alpha  occ. eigenvalues --   -0.49753  -0.49378  -0.49150  -0.48978  -0.48925
 Alpha  occ. eigenvalues --   -0.48410  -0.48260  -0.48161  -0.47887  -0.47818
 Alpha  occ. eigenvalues --   -0.47770  -0.47703  -0.47027  -0.46898  -0.46624
 Alpha  occ. eigenvalues --   -0.46574  -0.46224  -0.46167  -0.46020  -0.45788
 Alpha  occ. eigenvalues --   -0.45393  -0.45065  -0.44846  -0.44804  -0.44715
 Alpha  occ. eigenvalues --   -0.44380  -0.43859  -0.43736  -0.43605  -0.43504
 Alpha  occ. eigenvalues --   -0.43317  -0.43201  -0.43097  -0.42697  -0.42628
 Alpha  occ. eigenvalues --   -0.42387  -0.41678  -0.41530  -0.41124  -0.40632
 Alpha  occ. eigenvalues --   -0.40206  -0.39872  -0.39583  -0.39498  -0.39135
 Alpha  occ. eigenvalues --   -0.37687  -0.37277  -0.37264  -0.36433  -0.36137
 Alpha  occ. eigenvalues --   -0.35868  -0.35470  -0.34817  -0.34519  -0.34284
 Alpha  occ. eigenvalues --   -0.34231  -0.34077  -0.33304  -0.33165  -0.32507
 Alpha  occ. eigenvalues --   -0.31889  -0.31792  -0.31688  -0.29772  -0.29748
 Alpha  occ. eigenvalues --   -0.28697  -0.27995
 Alpha virt. eigenvalues --   -0.10709  -0.10321  -0.08815  -0.08656  -0.08072
 Alpha virt. eigenvalues --   -0.08032  -0.07825  -0.06914  -0.06718  -0.06055
 Alpha virt. eigenvalues --   -0.04503  -0.04015  -0.03726  -0.03681  -0.02188

 Mulliken charges:
               1
     1  N   -0.797371
     2  H    0.449269
     3  H    0.387060
     4  H    0.408668
     5  C   -0.102074
     6  H    0.225385
     7  C    0.628647
     8  C   -0.391349
     9  H    0.212443
    10  H    0.185326
    11  O   -0.540835
    12  C    0.146394
    13  C   -0.228610
    14  H    0.146694
    15  C   -0.195369
    16  H    0.158720
    17  C   -0.121645
    18  H    0.159259
    19  C   -0.146014
    20  H    0.184446
    21  C   -0.134421
    22  H    0.162400
    23  N   -0.655855
    24  H    0.425886
    25  C    0.005513
    26  H    0.199699
    27  C    0.565410
    28  C   -0.500772
    29  H    0.168375
    30  H    0.164803
    31  H    0.209267
    32  O   -0.525147
    33  N   -0.589696
    34  H    0.348161
    35  C   -0.077681
    36  H    0.200117
    37  C    0.618764
    38  C   -0.454243
    39  H    0.182229
    40  H    0.168490
    41  H    0.164063
    42  O   -0.505839
    43  N   -0.651316
    44  H    0.382066
    45  C   -0.003824
    46  H    0.166809
    47  C    0.618938
    48  C   -0.388545
    49  H    0.210883
    50  H    0.141357
    51  O   -0.574061
    52  C    0.176521
    53  C   -0.210109
    54  H    0.127851
    55  C   -0.204689
    56  H    0.137679
    57  C   -0.139077
    58  H    0.153984
    59  C   -0.144396
    60  H    0.141740
    61  O   -0.676299
    62  H    0.429578
    63  C    0.332016
    64  N   -0.568655
    65  H    0.350705
    66  C   -0.109106
    67  H    0.182254
    68  C    0.622795
    69  C   -0.283488
    70  H    0.146891
    71  H    0.170551
    72  O   -0.519544
    73  C   -0.066732
    74  H    0.130099
    75  C   -0.446202
    76  H    0.149208
    77  H    0.154692
    78  H    0.144189
    79  C   -0.468350
    80  H    0.144553
    81  H    0.151182
    82  H    0.159889
    83  N   -0.615151
    84  H    0.348770
    85  C   -0.069182
    86  H    0.193195
    87  C    0.615189
    88  C   -0.283683
    89  H    0.166827
    90  H    0.182527
    91  O   -0.570028
    92  C   -0.373404
    93  H    0.191313
    94  H    0.168635
    95  C    0.637811
    96  O   -0.531745
    97  O   -0.569500
    98  N   -0.601438
    99  H    0.354690
   100  C   -0.030564
   101  H    0.160151
   102  C    0.585329
   103  C   -0.264397
   104  H    0.137829
   105  H    0.161191
   106  O   -0.555699
   107  C   -0.285913
   108  H    0.132145
   109  H    0.164308
   110  C   -0.161281
   111  H    0.159568
   112  H    0.234501
   113  N   -0.600890
   114  H    0.341295
   115  N   -0.764331
   116  H    0.344256
   117  H    0.449030
   118  N   -0.763778
   119  H    0.362588
   120  H    0.358805
   121  C    0.776234
   122  O   -0.629658
   123  H    0.463850
 Sum of Mulliken charges =   1.00000

 Dipole moment (field-independent basis, Debye):
    X=              0.9009    Y=             -5.3372    Z=              0.9366  Tot=              5.4931
 Quadrupole moment (field-independent basis, Debye-Ang):
   XX=           -189.2828   YY=           -278.0813   ZZ=           -285.6278
   XY=            -84.5259   XZ=            -87.3441   YZ=             58.4004

 Normal termination of Gaussian 16 at Mon Jul 18 02:04:06 2022.
