 Gaussian 16, Revision C.01,
 Gaussian 16:  ES64L-G16RevC.01  3-Jul-2019

 -------------------------------------------------------------------
 # B3LYP/6-31G* guess=read geom=check nosymm integral(ultrafinegrid)
 -------------------------------------------------------------------

 ------------------------------------------------------
 Candidate Structure: Conf:448 Charge calc in gas phase
 ------------------------------------------------------
 Structure from the checkpoint file:  "conf-448.chk"
 Charge =  1 Multiplicity = 1

                          Input orientation:
 ---------------------------------------------------------------------
 Center     Atomic      Atomic             Coordinates (Angstroms)
 Number     Number       Type             X           Y           Z
 ---------------------------------------------------------------------
      1          7           0      -11.351635    1.876514    7.695263
      2          1           0      -12.245799    2.318590    7.918570
      3          1           0      -10.921841    1.509102    8.560261
      4          1           0      -11.466478    1.076128    7.007539
      5          6           0      -10.373539    2.779355    6.978499
      6          1           0      -10.959737    3.574088    6.506530
      7          6           0       -9.833211    1.850659    5.848583
      8          6           0       -9.348038    3.389376    7.962414
      9          1           0       -9.873932    4.124864    8.582910
     10          1           0       -8.619770    3.961278    7.377715
     11          8           0      -10.443811    0.790322    5.643436
     12          6           0       -8.659709    2.360916    8.837317
     13          6           0       -9.206154    2.028208   10.089343
     14          1           0      -10.063328    2.582347   10.472268
     15          6           0       -7.496023    1.704076    8.409103
     16          1           0       -7.038159    1.972853    7.460350
     17          6           0       -8.615753    1.043761   10.887728
     18          1           0       -9.042297    0.807109   11.857982
     19          6           0       -6.905158    0.728163    9.211466
     20          1           0       -5.997237    0.235939    8.875594
     21          6           0       -7.466767    0.389173   10.445476
     22          1           0       -6.999984   -0.369837   11.065912
     23          7           0       -8.793069    2.290859    5.153707
     24          1           0       -8.221013    3.079934    5.462962
     25          6           0       -8.109516    1.516805    4.115824
     26          1           0       -8.116992    0.461938    4.413093
     27          6           0       -6.654177    2.049739    4.147955
     28          6           0       -8.786710    1.667352    2.745742
     29          1           0       -8.271131    1.070120    1.987625
     30          1           0       -8.782643    2.712673    2.421398
     31          1           0       -9.820921    1.316598    2.803501
     32          8           0       -6.357220    2.971851    4.922306
     33          7           0       -5.796160    1.457576    3.313883
     34          1           0       -6.081901    0.748476    2.637890
     35          6           0       -4.411183    1.876975    3.126221
     36          1           0       -4.381532    2.971427    3.071923
     37          6           0       -3.996667    1.274051    1.763960
     38          6           0       -3.499538    1.402600    4.269964
     39          1           0       -2.469935    1.737722    4.110407
     40          1           0       -3.500962    0.309639    4.334384
     41          1           0       -3.852841    1.818429    5.217318
     42          8           0       -4.714339    0.430472    1.214865
     43          7           0       -2.833574    1.717232    1.266517
     44          1           0       -2.253286    2.401484    1.748282
     45          6           0       -2.238301    1.234714    0.026680
     46          1           0       -2.351789    0.146640   -0.016328
     47          6           0       -0.745075    1.612387    0.132130
     48          6           0       -2.945542    1.861842   -1.209688
     49          1           0       -4.016062    1.669200   -1.074108
     50          1           0       -2.801456    2.947685   -1.171245
     51          8           0       -0.392383    2.509568    0.906734
     52          6           0       -2.475721    1.315961   -2.539354
     53          6           0       -1.784183    2.124441   -3.452995
     54          1           0       -1.599646    3.168046   -3.208153
     55          6           0       -2.709791   -0.020012   -2.892391
     56          1           0       -3.268707   -0.668077   -2.219992
     57          6           0       -1.326031    1.627869   -4.669627
     58          1           0       -0.786331    2.256337   -5.371485
     59          6           0       -2.243093   -0.540386   -4.099060
     60          1           0       -2.425424   -1.583815   -4.349979
     61          8           0       -1.032895   -0.175195   -6.171017
     62          1           0       -1.237240   -1.119215   -6.260251
     63          6           0       -1.538961    0.281388   -4.984862
     64          7           0        0.104512    0.913496   -0.638934
     65          1           0       -0.220254    0.208596   -1.295206
     66          6           0        1.544522    1.157173   -0.659951
     67          1           0        1.709709    2.238664   -0.651626
     68          6           0        2.053373    0.538155   -1.973384
     69          6           0        2.220083    0.512292    0.579834
     70          1           0        1.635858    0.832131    1.451290
     71          1           0        2.099211   -0.575514    0.491461
     72          8           0        1.457455   -0.409222   -2.488712
     73          6           0        3.703261    0.854216    0.830670
     74          1           0        4.293147    0.581898   -0.054286
     75          6           0        3.922909    2.351083    1.103186
     76          1           0        3.336910    2.681716    1.970244
     77          1           0        4.979396    2.553874    1.309686
     78          1           0        3.636123    2.982729    0.254343
     79          6           0        4.226054    0.014942    2.007434
     80          1           0        3.677834    0.246107    2.930209
     81          1           0        4.116824   -1.058929    1.814052
     82          1           0        5.287233    0.217470    2.191560
     83          7           0        3.169379    1.098319   -2.496864
     84          1           0        3.716166    1.759761   -1.950830
     85          6           0        3.931159    0.492133   -3.580150
     86          1           0        3.643892   -0.563323   -3.643896
     87          6           0        5.421281    0.625290   -3.191132
     88          6           0        3.671578    1.175455   -4.942520
     89          1           0        3.977179    2.226879   -4.865530
     90          1           0        4.310957    0.713384   -5.701920
     91          8           0        5.766997    1.409445   -2.301141
     92          6           0        2.199611    1.089127   -5.378347
     93          1           0        1.546165    1.531143   -4.626213
     94          1           0        1.901758    0.040888   -5.496912
     95          6           0        1.933036    1.806800   -6.681948
     96          8           0        1.156073    2.724065   -6.844070
     97          8           0        2.681186    1.309024   -7.698182
     98          7           0        6.277855   -0.127957   -3.903066
     99          1           0        5.961403   -0.782467   -4.612395
    100          6           0        7.731432   -0.055666   -3.784547
    101          1           0        8.024812    0.986122   -3.638887
    102          6           0        8.355676   -0.581261   -5.094698
    103          6           0        8.218847   -0.901573   -2.572211
    104          1           0        7.667471   -1.852273   -2.588268
    105          1           0        7.894282   -0.380305   -1.666260
    106          8           0        9.440109   -0.103508   -5.457188
    107          6           0        9.744261   -1.169895   -2.518362
    108          1           0       10.114629   -1.001337   -1.499583
    109          1           0       10.270697   -0.471647   -3.177175
    110          6           0       10.142252   -2.613309   -2.885144
    111          1           0        9.659210   -3.320669   -2.201615
    112          1           0       11.219752   -2.751046   -2.750614
    113          7           0        9.764641   -3.019382   -4.247094
    114          1           0        8.774667   -2.882038   -4.473373
    115          7           0       11.875299   -3.008880   -5.280615
    116          1           0       12.419930   -2.621310   -6.037011
    117          1           0       12.331862   -3.036615   -4.382234
    118          7           0        9.909581   -2.872588   -6.531908
    119          1           0       10.477374   -2.747456   -7.358688
    120          1           0        8.984213   -2.371296   -6.497060
    121          6           0       10.526203   -2.927067   -5.348024
    122          8           0        7.729968   -1.579706   -5.619778
    123          1           0        2.443410    1.828319   -8.489547
 ---------------------------------------------------------------------

 SCF Done:  E(RB3LYP) =  -2974.04265622     A.U. after    3 cycles

 Alpha  occ. eigenvalues --  -19.26220 -19.22475 -19.21731 -19.21605 -19.18886
 Alpha  occ. eigenvalues --  -19.16832 -19.16831 -19.16089 -19.15320 -19.12733
 Alpha  occ. eigenvalues --  -19.11435 -14.58828 -14.48659 -14.44806 -14.44618
 Alpha  occ. eigenvalues --  -14.42867 -14.42372 -14.41057 -14.40660 -14.40020
 Alpha  occ. eigenvalues --  -14.39107 -10.43041 -10.40426 -10.39485 -10.38646
 Alpha  occ. eigenvalues --  -10.35918 -10.34952 -10.34314 -10.33938 -10.33869
 Alpha  occ. eigenvalues --  -10.33180 -10.32384 -10.31824 -10.31424 -10.30687
 Alpha  occ. eigenvalues --  -10.29932 -10.29858 -10.29743 -10.29624 -10.29482
 Alpha  occ. eigenvalues --  -10.29223 -10.29167 -10.28605 -10.27918 -10.27720
 Alpha  occ. eigenvalues --  -10.27459 -10.25632 -10.24959 -10.24223 -10.23438
 Alpha  occ. eigenvalues --  -10.23432 -10.23225 -10.23168 -10.22928 -10.22771
 Alpha  occ. eigenvalues --  -10.22745 -10.22718 -10.22594 -10.22541 -10.21722
 Alpha  occ. eigenvalues --  -10.20947 -10.20740  -1.18624  -1.13596  -1.13291
 Alpha  occ. eigenvalues --   -1.12878  -1.10732  -1.09536  -1.08805  -1.08243
 Alpha  occ. eigenvalues --   -1.07950  -1.06922  -1.05438  -1.05177  -1.04166
 Alpha  occ. eigenvalues --   -1.01456  -0.99019  -0.97965  -0.97174  -0.97149
 Alpha  occ. eigenvalues --   -0.96772  -0.96555  -0.95842  -0.95027  -0.92752
 Alpha  occ. eigenvalues --   -0.89333  -0.88501  -0.86112  -0.85407  -0.85314
 Alpha  occ. eigenvalues --   -0.84552  -0.84101  -0.83453  -0.82594  -0.79589
 Alpha  occ. eigenvalues --   -0.79575  -0.78756  -0.78503  -0.77240  -0.76545
 Alpha  occ. eigenvalues --   -0.75867  -0.74010  -0.73839  -0.72453  -0.71893
 Alpha  occ. eigenvalues --   -0.71684  -0.71339  -0.70858  -0.70283  -0.69971
 Alpha  occ. eigenvalues --   -0.69757  -0.68890  -0.67731  -0.66561  -0.66067
 Alpha  occ. eigenvalues --   -0.65983  -0.65130  -0.64906  -0.64694  -0.63547
 Alpha  occ. eigenvalues --   -0.63206  -0.62986  -0.62353  -0.62179  -0.61621
 Alpha  occ. eigenvalues --   -0.61414  -0.61081  -0.60686  -0.60056  -0.59648
 Alpha  occ. eigenvalues --   -0.58626  -0.58081  -0.57639  -0.57067  -0.56897
 Alpha  occ. eigenvalues --   -0.56661  -0.56503  -0.55854  -0.55134  -0.54804
 Alpha  occ. eigenvalues --   -0.54526  -0.54041  -0.53232  -0.53044  -0.52885
 Alpha  occ. eigenvalues --   -0.52771  -0.52633  -0.52271  -0.51922  -0.51738
 Alpha  occ. eigenvalues --   -0.51367  -0.51247  -0.51126  -0.51108  -0.50930
 Alpha  occ. eigenvalues --   -0.50756  -0.50549  -0.50042  -0.49718  -0.49528
 Alpha  occ. eigenvalues --   -0.48959  -0.48861  -0.48724  -0.48404  -0.48063
 Alpha  occ. eigenvalues --   -0.47987  -0.47869  -0.47712  -0.47395  -0.47062
 Alpha  occ. eigenvalues --   -0.47029  -0.46778  -0.46593  -0.45920  -0.45782
 Alpha  occ. eigenvalues --   -0.45478  -0.45361  -0.45254  -0.45120  -0.44980
 Alpha  occ. eigenvalues --   -0.44837  -0.44723  -0.44363  -0.44215  -0.44131
 Alpha  occ. eigenvalues --   -0.43594  -0.43245  -0.42734  -0.42348  -0.42119
 Alpha  occ. eigenvalues --   -0.42028  -0.41731  -0.41547  -0.40938  -0.40789
 Alpha  occ. eigenvalues --   -0.40613  -0.40528  -0.39985  -0.39941  -0.39512
 Alpha  occ. eigenvalues --   -0.39382  -0.39057  -0.38792  -0.38754  -0.38306
 Alpha  occ. eigenvalues --   -0.37437  -0.37330  -0.36991  -0.36597  -0.36230
 Alpha  occ. eigenvalues --   -0.36195  -0.35985  -0.35876  -0.35775  -0.34985
 Alpha  occ. eigenvalues --   -0.34840  -0.34593  -0.33050  -0.32218  -0.32016
 Alpha  occ. eigenvalues --   -0.31228  -0.30772  -0.30359  -0.30197  -0.29462
 Alpha  occ. eigenvalues --   -0.29274  -0.28924  -0.28748  -0.28027  -0.27338
 Alpha  occ. eigenvalues --   -0.25488  -0.24953
 Alpha virt. eigenvalues --   -0.12401  -0.11936  -0.11771  -0.08326  -0.07326
 Alpha virt. eigenvalues --   -0.04860  -0.04612  -0.04171  -0.03905  -0.03053
 Alpha virt. eigenvalues --   -0.02833  -0.02757  -0.02487  -0.01555  -0.01302

 Mulliken charges:
               1
     1  N   -0.757447
     2  H    0.409477
     3  H    0.403802
     4  H    0.433284
     5  C   -0.112496
     6  H    0.227888
     7  C    0.656517
     8  C   -0.393970
     9  H    0.188653
    10  H    0.210297
    11  O   -0.541747
    12  C    0.139091
    13  C   -0.234918
    14  H    0.140899
    15  C   -0.184286
    16  H    0.166339
    17  C   -0.118792
    18  H    0.164595
    19  C   -0.125366
    20  H    0.165333
    21  C   -0.121352
    22  H    0.167247
    23  N   -0.608888
    24  H    0.377721
    25  C   -0.062709
    26  H    0.201245
    27  C    0.634433
    28  C   -0.454568
    29  H    0.182964
    30  H    0.172508
    31  H    0.184406
    32  O   -0.558286
    33  N   -0.619662
    34  H    0.369329
    35  C   -0.044149
    36  H    0.185921
    37  C    0.626601
    38  C   -0.451773
    39  H    0.171901
    40  H    0.163905
    41  H    0.177176
    42  O   -0.552878
    43  N   -0.624006
    44  H    0.361071
    45  C   -0.045606
    46  H    0.176873
    47  C    0.627147
    48  C   -0.351138
    49  H    0.176579
    50  H    0.154155
    51  O   -0.558013
    52  C    0.155725
    53  C   -0.199664
    54  H    0.133361
    55  C   -0.210062
    56  H    0.134918
    57  C   -0.175292
    58  H    0.188252
    59  C   -0.179114
    60  H    0.123689
    61  O   -0.643695
    62  H    0.409596
    63  C    0.352116
    64  N   -0.623291
    65  H    0.366242
    66  C   -0.044834
    67  H    0.175932
    68  C    0.612225
    69  C   -0.257230
    70  H    0.157883
    71  H    0.141261
    72  O   -0.545906
    73  C   -0.096124
    74  H    0.144815
    75  C   -0.445263
    76  H    0.145979
    77  H    0.153949
    78  H    0.139723
    79  C   -0.443857
    80  H    0.138271
    81  H    0.140070
    82  H    0.147010
    83  N   -0.609001
    84  H    0.363576
    85  C   -0.072420
    86  H    0.177177
    87  C    0.625433
    88  C   -0.272387
    89  H    0.159463
    90  H    0.172625
    91  O   -0.552743
    92  C   -0.335928
    93  H    0.183851
    94  H    0.184067
    95  C    0.579086
    96  O   -0.464806
    97  O   -0.561038
    98  N   -0.615220
    99  H    0.349619
   100  C   -0.007622
   101  H    0.174718
   102  C    0.572604
   103  C   -0.295050
   104  H    0.132970
   105  H    0.174902
   106  O   -0.568631
   107  C   -0.274054
   108  H    0.146652
   109  H    0.190022
   110  C   -0.170183
   111  H    0.175933
   112  H    0.140428
   113  N   -0.587150
   114  H    0.375841
   115  N   -0.758385
   116  H    0.365740
   117  H    0.365447
   118  N   -0.745821
   119  H    0.339548
   120  H    0.410776
   121  C    0.777018
   122  O   -0.650050
   123  H    0.411000
 Sum of Mulliken charges =   1.00000

 Dipole moment (field-independent basis, Debye):
    X=            -26.8516    Y=              1.0486    Z=             26.2314  Tot=             37.5526
 Quadrupole moment (field-independent basis, Debye-Ang):
   XX=            253.8364   YY=           -335.3144   ZZ=            -80.2583
   XY=           -158.0250   XZ=           -376.1368   YZ=             92.4849

 Normal termination of Gaussian 16 at Mon Jul 18 02:04:32 2022.
