 Gaussian 16, Revision C.01,
 Gaussian 16:  ES64L-G16RevC.01  3-Jul-2019

 -------------------------------------------------------------------
 # B3LYP/6-31G* guess=read geom=check nosymm integral(ultrafinegrid)
 -------------------------------------------------------------------

 ------------------------------------------------------
 Candidate Structure: Conf:231 Charge calc in gas phase
 ------------------------------------------------------
 Structure from the checkpoint file:  "conf-231.chk"
 Charge =  1 Multiplicity = 1

                          Input orientation:
 ---------------------------------------------------------------------
 Center     Atomic      Atomic             Coordinates (Angstroms)
 Number     Number       Type             X           Y           Z
 ---------------------------------------------------------------------
      1          7           0      -11.203993    0.593097    2.775126
      2          1           0      -11.347656    0.268778    1.814219
      3          1           0      -12.064677    1.041958    3.100328
      4          1           0      -10.946624   -0.243007    3.382545
      5          6           0       -9.972063    1.471947    2.924118
      6          1           0       -9.689496    1.859120    1.943310
      7          6           0       -8.924915    0.450593    3.454080
      8          6           0      -10.282150    2.626514    3.913818
      9          1           0      -10.348667    2.216522    4.928685
     10          1           0      -11.274229    3.024585    3.660063
     11          8           0       -9.366247   -0.604794    3.944266
     12          6           0       -9.282058    3.764942    3.856191
     13          6           0       -8.186115    3.815611    4.724686
     14          1           0       -8.046773    3.035936    5.468588
     15          6           0       -9.454272    4.795241    2.917585
     16          1           0      -10.318425    4.787819    2.255975
     17          6           0       -7.267022    4.864251    4.646803
     18          1           0       -6.419659    4.886061    5.324606
     19          6           0       -8.537961    5.846009    2.840062
     20          1           0       -8.694137    6.647331    2.123354
     21          6           0       -7.438788    5.878960    3.705184
     22          1           0       -6.731039    6.700994    3.653743
     23          7           0       -7.643529    0.771784    3.348890
     24          1           0       -7.350396    1.664840    2.950338
     25          6           0       -6.555214   -0.099609    3.802556
     26          1           0       -6.782480   -0.431482    4.822739
     27          6           0       -5.293922    0.794834    3.827721
     28          6           0       -6.404298   -1.328287    2.888374
     29          1           0       -5.641202   -2.015502    3.266486
     30          1           0       -6.123602   -1.022469    1.875996
     31          1           0       -7.347714   -1.878257    2.853403
     32          8           0       -5.371893    1.989655    3.547970
     33          7           0       -4.141392    0.175428    4.182661
     34          1           0       -4.125537   -0.835670    4.242170
     35          6           0       -2.825441    0.803003    3.997391
     36          1           0       -3.009024    1.877081    3.930382
     37          6           0       -2.265614    0.245926    2.674135
     38          6           0       -1.894662    0.481764    5.166944
     39          1           0       -0.931494    0.985081    5.033454
     40          1           0       -1.707150   -0.595025    5.221713
     41          1           0       -2.335918    0.819247    6.109055
     42          8           0       -2.037752   -0.963089    2.565374
     43          7           0       -2.097609    1.128637    1.664218
     44          1           0       -2.401976    2.083484    1.804919
     45          6           0       -1.857580    0.696092    0.279117
     46          1           0       -2.358444   -0.273599    0.173182
     47          6           0       -0.349178    0.475587    0.008093
     48          6           0       -2.451251    1.706720   -0.724049
     49          1           0       -1.818772    2.599813   -0.736928
     50          1           0       -2.363958    1.265299   -1.722491
     51          8           0        0.282469    1.205169   -0.757139
     52          6           0       -3.885201    2.066333   -0.401424
     53          6           0       -4.928844    1.145469   -0.580992
     54          1           0       -4.724683    0.187059   -1.052775
     55          6           0       -4.200091    3.308864    0.161855
     56          1           0       -3.420602    4.059241    0.275838
     57          6           0       -6.227231    1.431226   -0.164457
     58          1           0       -7.031451    0.716033   -0.310522
     59          6           0       -5.493303    3.609597    0.590242
     60          1           0       -5.707645    4.568357    1.056424
     61          8           0       -7.775894    2.861864    0.940979
     62          1           0       -7.841514    3.766532    1.294971
     63          6           0       -6.498697    2.655550    0.451311
     64          7           0        0.191607   -0.581219    0.658340
     65          1           0       -0.406057   -1.123589    1.278836
     66          6           0        1.616568   -0.918671    0.545442
     67          1           0        2.140818    0.029125    0.387325
     68          6           0        1.825245   -1.800595   -0.718181
     69          6           0        2.113752   -1.606848    1.819710
     70          1           0        1.666269   -1.101572    2.686081
     71          1           0        1.745483   -2.639182    1.815158
     72          8           0        2.038736   -3.019011   -0.646891
     73          6           0        3.649485   -1.606127    1.979861
     74          1           0        4.087014   -1.910434    1.017387
     75          6           0        4.196989   -0.212908    2.326908
     76          1           0        3.806893    0.126741    3.295163
     77          1           0        5.290187   -0.230435    2.398895
     78          1           0        3.932712    0.540765    1.576689
     79          6           0        4.073820   -2.633818    3.039837
     80          1           0        3.627994   -2.396675    4.014358
     81          1           0        3.757760   -3.647709    2.767435
     82          1           0        5.162066   -2.641672    3.171380
     83          7           0        1.691133   -1.122058   -1.872626
     84          1           0        1.521720   -0.120813   -1.811755
     85          6           0        1.685373   -1.731337   -3.202213
     86          1           0        1.408420   -2.780948   -3.065325
     87          6           0        3.096815   -1.621161   -3.833820
     88          6           0        0.641511   -1.009735   -4.067109
     89          1           0       -0.329579   -1.044402   -3.562789
     90          1           0        0.928187    0.045700   -4.146870
     91          8           0        3.636273   -0.520712   -3.945228
     92          6           0        0.502692   -1.602625   -5.470769
     93          1           0        0.374314   -2.694152   -5.430996
     94          1           0        1.397033   -1.429409   -6.078030
     95          6           0       -0.699610   -1.044258   -6.203670
     96          8           0       -1.629253   -0.451549   -5.697548
     97          8           0       -0.637572   -1.308151   -7.528948
     98          7           0        3.611731   -2.808227   -4.203152
     99          1           0        3.064077   -3.666383   -4.134757
    100          6           0        4.910627   -3.105050   -4.806454
    101          1           0        4.916014   -2.767257   -5.853617
    102          6           0        5.017612   -4.670801   -4.811816
    103          6           0        6.104726   -2.415144   -4.113442
    104          1           0        6.039539   -1.347857   -4.342197
    105          1           0        7.007668   -2.809208   -4.590699
    106          8           0        6.161970   -5.166059   -4.872459
    107          6           0        6.226088   -2.534123   -2.580091
    108          1           0        5.258307   -2.318066   -2.110282
    109          1           0        6.903673   -1.737406   -2.244596
    110          6           0        6.801896   -3.840016   -1.999184
    111          1           0        7.071785   -3.694120   -0.945201
    112          1           0        7.726351   -4.107866   -2.516195
    113          7           0        5.935145   -5.023342   -2.115810
    114          1           0        6.057414   -5.518049   -3.009251
    115          7           0        4.483824   -4.547080   -0.329730
    116          1           0        3.549216   -4.143518   -0.232595
    117          1           0        5.219214   -3.975440    0.060854
    118          7           0        3.830877   -5.967258   -2.051038
    119          1           0        2.960403   -6.080490   -1.549923
    120          1           0        3.810375   -6.010740   -3.094492
    121          6           0        4.750927   -5.157002   -1.513826
    122          8           0        3.915591   -5.290778   -4.657313
    123          1           0       -1.451521   -0.940388   -7.922054
 ---------------------------------------------------------------------

 SCF Done:  E(RB3LYP) =  -2974.03643185     A.U. after    1 cycles

 Alpha  occ. eigenvalues --  -19.28581 -19.27473 -19.23737 -19.23470 -19.21668
 Alpha  occ. eigenvalues --  -19.19387 -19.18274 -19.18248 -19.13699 -19.11413
 Alpha  occ. eigenvalues --  -19.10382 -14.60701 -14.50102 -14.47389 -14.46278
 Alpha  occ. eigenvalues --  -14.43235 -14.41936 -14.41521 -14.41455 -14.40592
 Alpha  occ. eigenvalues --  -14.37726 -10.44178 -10.41191 -10.40649 -10.38619
 Alpha  occ. eigenvalues --  -10.37975 -10.36442 -10.36365 -10.36098 -10.35206
 Alpha  occ. eigenvalues --  -10.35042 -10.34437 -10.33662 -10.32486 -10.32341
 Alpha  occ. eigenvalues --  -10.31119 -10.31111 -10.30783 -10.30661 -10.30334
 Alpha  occ. eigenvalues --  -10.30263 -10.29852 -10.29657 -10.29040 -10.28294
 Alpha  occ. eigenvalues --  -10.28284 -10.28264 -10.28211 -10.28191 -10.27726
 Alpha  occ. eigenvalues --  -10.27474 -10.27466 -10.27441 -10.25401 -10.24868
 Alpha  occ. eigenvalues --  -10.24591 -10.24123 -10.23839 -10.23213 -10.23154
 Alpha  occ. eigenvalues --  -10.22555 -10.20499  -1.19922  -1.15935  -1.15516
 Alpha  occ. eigenvalues --   -1.14684  -1.14410  -1.13465  -1.11142  -1.09430
 Alpha  occ. eigenvalues --   -1.06760  -1.06698  -1.05649  -1.05546  -1.04214
 Alpha  occ. eigenvalues --   -1.03707  -1.02372  -0.99680  -0.98036  -0.97852
 Alpha  occ. eigenvalues --   -0.96492  -0.95639  -0.94617  -0.94595  -0.93793
 Alpha  occ. eigenvalues --   -0.93655  -0.90222  -0.88195  -0.87304  -0.86716
 Alpha  occ. eigenvalues --   -0.86123  -0.85560  -0.85149  -0.84096  -0.82793
 Alpha  occ. eigenvalues --   -0.82321  -0.80952  -0.80666  -0.78388  -0.78154
 Alpha  occ. eigenvalues --   -0.76366  -0.75616  -0.74480  -0.74100  -0.74047
 Alpha  occ. eigenvalues --   -0.74033  -0.72344  -0.72079  -0.71704  -0.71590
 Alpha  occ. eigenvalues --   -0.70861  -0.70081  -0.69752  -0.68965  -0.68377
 Alpha  occ. eigenvalues --   -0.68188  -0.67420  -0.66925  -0.65963  -0.64833
 Alpha  occ. eigenvalues --   -0.64094  -0.63783  -0.63686  -0.63003  -0.62769
 Alpha  occ. eigenvalues --   -0.62529  -0.62436  -0.61885  -0.60823  -0.60471
 Alpha  occ. eigenvalues --   -0.60091  -0.59490  -0.58719  -0.58493  -0.58149
 Alpha  occ. eigenvalues --   -0.57866  -0.57648  -0.57354  -0.57133  -0.56602
 Alpha  occ. eigenvalues --   -0.56258  -0.55952  -0.55633  -0.55587  -0.54766
 Alpha  occ. eigenvalues --   -0.54618  -0.54547  -0.54227  -0.53588  -0.53365
 Alpha  occ. eigenvalues --   -0.53270  -0.52900  -0.52575  -0.52402  -0.52366
 Alpha  occ. eigenvalues --   -0.51980  -0.51865  -0.51709  -0.51619  -0.51391
 Alpha  occ. eigenvalues --   -0.50867  -0.50762  -0.50681  -0.50551  -0.49850
 Alpha  occ. eigenvalues --   -0.49587  -0.49448  -0.49123  -0.48814  -0.48708
 Alpha  occ. eigenvalues --   -0.48636  -0.48418  -0.47810  -0.47729  -0.47560
 Alpha  occ. eigenvalues --   -0.47405  -0.47189  -0.47076  -0.46339  -0.46307
 Alpha  occ. eigenvalues --   -0.46114  -0.46015  -0.45939  -0.45715  -0.45421
 Alpha  occ. eigenvalues --   -0.44966  -0.44341  -0.44250  -0.44189  -0.43760
 Alpha  occ. eigenvalues --   -0.43722  -0.43532  -0.42972  -0.42820  -0.42335
 Alpha  occ. eigenvalues --   -0.42151  -0.42021  -0.41951  -0.41881  -0.41543
 Alpha  occ. eigenvalues --   -0.41108  -0.40046  -0.39615  -0.39244  -0.39136
 Alpha  occ. eigenvalues --   -0.38999  -0.38663  -0.38549  -0.38258  -0.38046
 Alpha  occ. eigenvalues --   -0.37513  -0.36796  -0.36689  -0.36605  -0.36527
 Alpha  occ. eigenvalues --   -0.36299  -0.36036  -0.34933  -0.34624  -0.34341
 Alpha  occ. eigenvalues --   -0.33848  -0.32541  -0.32030  -0.31791  -0.31341
 Alpha  occ. eigenvalues --   -0.31229  -0.30747  -0.28136  -0.27303  -0.26594
 Alpha  occ. eigenvalues --   -0.25925  -0.24339
 Alpha virt. eigenvalues --   -0.13455  -0.12556  -0.11934  -0.11655  -0.09974
 Alpha virt. eigenvalues --   -0.09545  -0.08458  -0.07457  -0.06953  -0.06129
 Alpha virt. eigenvalues --   -0.04409  -0.04058  -0.03546  -0.03215  -0.03206

 Mulliken charges:
               1
     1  N   -0.757777
     2  H    0.418488
     3  H    0.410903
     4  H    0.433518
     5  C   -0.116593
     6  H    0.244443
     7  C    0.644873
     8  C   -0.389321
     9  H    0.196927
    10  H    0.175115
    11  O   -0.549618
    12  C    0.162818
    13  C   -0.172179
    14  H    0.146529
    15  C   -0.211544
    16  H    0.141837
    17  C   -0.108478
    18  H    0.165483
    19  C   -0.151953
    20  H    0.167666
    21  C   -0.126339
    22  H    0.166543
    23  N   -0.612377
    24  H    0.405810
    25  C   -0.057704
    26  H    0.203471
    27  C    0.624371
    28  C   -0.470606
    29  H    0.172533
    30  H    0.177662
    31  H    0.191133
    32  O   -0.529953
    33  N   -0.594721
    34  H    0.350467
    35  C   -0.065670
    36  H    0.181167
    37  C    0.633440
    38  C   -0.457009
    39  H    0.173657
    40  H    0.178755
    41  H    0.171087
    42  O   -0.551840
    43  N   -0.594802
    44  H    0.348299
    45  C   -0.061846
    46  H    0.181786
    47  C    0.643382
    48  C   -0.402072
    49  H    0.187445
    50  H    0.196532
    51  O   -0.534803
    52  C    0.175413
    53  C   -0.187271
    54  H    0.147627
    55  C   -0.216243
    56  H    0.146710
    57  C   -0.164753
    58  H    0.129678
    59  C   -0.165531
    60  H    0.138075
    61  O   -0.698063
    62  H    0.426674
    63  C    0.349213
    64  N   -0.628607
    65  H    0.373216
    66  C   -0.061602
    67  H    0.184660
    68  C    0.634501
    69  C   -0.278600
    70  H    0.134199
    71  H    0.158587
    72  O   -0.573850
    73  C   -0.082529
    74  H    0.119597
    75  C   -0.450628
    76  H    0.141824
    77  H    0.154328
    78  H    0.153328
    79  C   -0.452772
    80  H    0.145947
    81  H    0.150710
    82  H    0.148620
    83  N   -0.598005
    84  H    0.379987
    85  C   -0.058629
    86  H    0.155740
    87  C    0.629774
    88  C   -0.278098
    89  H    0.155242
    90  H    0.176537
    91  O   -0.551596
    92  C   -0.370979
    93  H    0.184537
    94  H    0.203972
    95  C    0.582631
    96  O   -0.473256
    97  O   -0.559735
    98  N   -0.632956
    99  H    0.348399
   100  C   -0.028252
   101  H    0.164465
   102  C    0.575042
   103  C   -0.271974
   104  H    0.168566
   105  H    0.163478
   106  O   -0.580649
   107  C   -0.273443
   108  H    0.141160
   109  H    0.145184
   110  C   -0.169044
   111  H    0.141375
   112  H    0.192017
   113  N   -0.581175
   114  H    0.394566
   115  N   -0.787804
   116  H    0.405615
   117  H    0.352614
   118  N   -0.758819
   119  H    0.346076
   120  H    0.412806
   121  C    0.727678
   122  O   -0.614919
   123  H    0.410476
 Sum of Mulliken charges =   1.00000

 Dipole moment (field-independent basis, Debye):
    X=            -45.5226    Y=              9.8286    Z=             21.8581  Tot=             51.4460
 Quadrupole moment (field-independent basis, Debye-Ang):
   XX=             83.7318   YY=           -348.5391   ZZ=           -336.8115
   XY=            -52.9429   XZ=            -74.7145   YZ=             -3.6349

 Normal termination of Gaussian 16 at Mon Jul 18 02:04:06 2022.
