 Gaussian 16, Revision C.01,
 Gaussian 16:  ES64L-G16RevC.01  3-Jul-2019

 -------------------------------------------------------------------
 # B3LYP/6-31G* guess=read geom=check nosymm integral(ultrafinegrid)
 -------------------------------------------------------------------

 ------------------------------------------------------
 Candidate Structure: Conf:669 Charge calc in gas phase
 ------------------------------------------------------
 Structure from the checkpoint file:  "conf-669.chk"
 Charge =  1 Multiplicity = 1

                          Input orientation:
 ---------------------------------------------------------------------
 Center     Atomic      Atomic             Coordinates (Angstroms)
 Number     Number       Type             X           Y           Z
 ---------------------------------------------------------------------
      1          7           0       -2.510609    4.575105    0.681070
      2          1           0       -2.913169    4.150578   -0.180064
      3          1           0       -1.461809    4.629874    0.499993
      4          1           0       -2.946995    5.486995    0.852685
      5          6           0       -2.762960    3.686694    1.854366
      6          1           0       -2.462950    2.681141    1.547058
      7          6           0       -4.281293    3.726641    2.115760
      8          6           0       -1.898612    4.121667    3.065795
      9          1           0       -0.858510    3.895283    2.810646
     10          1           0       -2.173477    3.476691    3.908345
     11          8           0       -4.936811    4.706921    1.765540
     12          6           0       -2.025709    5.583746    3.445012
     13          6           0       -1.115910    6.521509    2.933482
     14          1           0       -0.308824    6.184305    2.286168
     15          6           0       -3.045563    6.029311    4.297090
     16          1           0       -3.752565    5.314642    4.711254
     17          6           0       -1.228985    7.874126    3.261373
     18          1           0       -0.513800    8.587892    2.861585
     19          6           0       -3.157153    7.379395    4.627650
     20          1           0       -3.950463    7.707668    5.293237
     21          6           0       -2.250355    8.305885    4.108488
     22          1           0       -2.336457    9.357114    4.368472
     23          7           0       -4.747389    2.617440    2.721410
     24          1           0       -4.095595    1.888323    3.002757
     25          6           0       -6.127287    2.293118    3.094097
     26          1           0       -6.381064    2.816239    4.028820
     27          6           0       -6.049400    0.784769    3.439452
     28          6           0       -7.160921    2.669746    2.027778
     29          1           0       -8.175342    2.496661    2.404711
     30          1           0       -7.015486    2.092156    1.109502
     31          1           0       -7.071644    3.729178    1.785817
     32          8           0       -5.005341    0.332268    3.921864
     33          7           0       -7.123874    0.013033    3.185490
     34          1           0       -7.922908    0.405569    2.707081
     35          6           0       -7.130602   -1.435609    3.447872
     36          1           0       -6.508067   -1.581299    4.336519
     37          6           0       -6.480153   -2.221888    2.273500
     38          6           0       -8.554271   -1.914885    3.707990
     39          1           0       -8.553159   -2.983056    3.935462
     40          1           0       -9.183672   -1.778438    2.822679
     41          1           0       -8.989650   -1.372807    4.553117
     42          8           0       -7.122315   -3.025834    1.604270
     43          7           0       -5.165548   -1.953902    2.060023
     44          1           0       -4.650803   -1.334061    2.684105
     45          6           0       -4.388299   -2.694437    1.083024
     46          1           0       -4.660108   -3.755438    1.161469
     47          6           0       -2.907559   -2.519333    1.465812
     48          6           0       -4.687575   -2.271293   -0.391777
     49          1           0       -4.223039   -3.010225   -1.057264
     50          1           0       -5.769190   -2.378567   -0.516912
     51          8           0       -2.544719   -1.658722    2.261733
     52          6           0       -4.222850   -0.884038   -0.770028
     53          6           0       -5.026609    0.246535   -0.570681
     54          1           0       -6.034839    0.119621   -0.184694
     55          6           0       -2.948061   -0.688364   -1.318450
     56          1           0       -2.315775   -1.547668   -1.524531
     57          6           0       -4.563790    1.530827   -0.859497
     58          1           0       -5.197009    2.400813   -0.709439
     59          6           0       -2.468060    0.586667   -1.604854
     60          1           0       -1.473920    0.729742   -2.014739
     61          8           0       -2.810054    2.982880   -1.579914
     62          1           0       -1.815341    2.965393   -1.671403
     63          6           0       -3.266793    1.705751   -1.351829
     64          7           0       -2.042887   -3.404442    0.885959
     65          1           0       -2.367432   -3.982709    0.121112
     66          6           0       -0.600924   -3.297776    1.049648
     67          1           0       -0.449462   -2.609482    1.885716
     68          6           0        0.007762   -2.716203   -0.246279
     69          6           0        0.084368   -4.650810    1.349694
     70          1           0       -0.143770   -5.354057    0.536239
     71          1           0        1.166748   -4.468874    1.294896
     72          8           0       -0.422063   -3.071865   -1.343888
     73          6           0       -0.233444   -5.297299    2.718489
     74          1           0       -0.264455   -4.494432    3.470245
     75          6           0       -1.583284   -6.031708    2.745473
     76          1           0       -1.598773   -6.841760    2.004293
     77          1           0       -1.754462   -6.483093    3.729270
     78          1           0       -2.421551   -5.363530    2.533302
     79          6           0        0.898618   -6.262381    3.108098
     80          1           0        0.998535   -7.069089    2.370365
     81          1           0        1.864419   -5.747205    3.173986
     82          1           0        0.699483   -6.727165    4.080019
     83          7           0        1.029633   -1.842660   -0.045317
     84          1           0        1.299715   -1.652785    0.913845
     85          6           0        1.879249   -1.116013   -1.006956
     86          1           0        2.843682   -1.639555   -1.084201
     87          6           0        2.223181    0.197463   -0.247430
     88          6           0        1.306341   -0.950908   -2.427118
     89          1           0        0.239123   -0.726984   -2.380558
     90          1           0        1.802811   -0.091682   -2.890538
     91          8           0        2.676795    0.099219    0.887844
     92          6           0        1.518267   -2.155777   -3.349761
     93          1           0        0.964974   -2.005756   -4.287242
     94          1           0        1.099600   -3.063888   -2.910379
     95          6           0        2.956477   -2.389409   -3.730152
     96          8           0        3.888504   -1.610107   -3.566323
     97          8           0        3.138611   -3.583824   -4.305243
     98          7           0        2.030379    1.411784   -0.867790
     99          1           0        1.332923    1.434233   -1.616290
    100          6           0        1.841140    2.613864   -0.021925
    101          1           0        1.782994    2.276254    1.016655
    102          6           0        0.480660    3.266059   -0.387217
    103          6           0        2.977620    3.643568   -0.131463
    104          1           0        2.683782    4.489228    0.495643
    105          1           0        3.016662    4.028305   -1.160370
    106          8           0        0.119390    4.198374    0.379044
    107          6           0        4.364260    3.106594    0.303164
    108          1           0        4.266318    2.121972    0.774636
    109          1           0        4.804621    3.766203    1.058330
    110          6           0        5.376887    3.022554   -0.839779
    111          1           0        6.351622    2.687055   -0.465567
    112          1           0        5.501673    4.021575   -1.282701
    113          7           0        4.917962    2.083464   -1.876728
    114          1           0        3.979545    1.691274   -1.759631
    115          7           0        6.711524    2.502132   -3.284515
    116          1           0        7.307573    2.230446   -4.051797
    117          1           0        6.961408    3.336141   -2.775734
    118          7           0        5.162921    0.868044   -3.839088
    119          1           0        5.643767    0.728017   -4.716079
    120          1           0        4.550276    0.101295   -3.547484
    121          6           0        5.591076    1.814158   -2.993386
    122          8           0       -0.117816    2.809889   -1.399829
    123          1           0        4.082701   -3.661852   -4.542449
 ---------------------------------------------------------------------

 SCF Done:  E(RB3LYP) =  -2974.08645123     A.U. after    1 cycles

 Alpha  occ. eigenvalues --  -19.30079 -19.25488 -19.23276 -19.22170 -19.19764
 Alpha  occ. eigenvalues --  -19.19744 -19.19716 -19.19397 -19.18876 -19.18428
 Alpha  occ. eigenvalues --  -19.16904 -14.51577 -14.50314 -14.49741 -14.49060
 Alpha  occ. eigenvalues --  -14.45559 -14.44988 -14.44433 -14.43845 -14.42923
 Alpha  occ. eigenvalues --  -14.40654 -10.47144 -10.43207 -10.39111 -10.37100
 Alpha  occ. eigenvalues --  -10.37038 -10.36932 -10.36851 -10.35569 -10.35042
 Alpha  occ. eigenvalues --  -10.34005 -10.33768 -10.33082 -10.31914 -10.30994
 Alpha  occ. eigenvalues --  -10.30691 -10.30464 -10.29898 -10.29554 -10.29291
 Alpha  occ. eigenvalues --  -10.29126 -10.28968 -10.28032 -10.27599 -10.26340
 Alpha  occ. eigenvalues --  -10.25646 -10.25600 -10.25179 -10.25174 -10.25078
 Alpha  occ. eigenvalues --  -10.25076 -10.25068 -10.24967 -10.24895 -10.24874
 Alpha  occ. eigenvalues --  -10.24765 -10.24538 -10.24491 -10.24434 -10.23908
 Alpha  occ. eigenvalues --  -10.22869 -10.22541  -1.21473  -1.15618  -1.14152
 Alpha  occ. eigenvalues --   -1.12375  -1.12253  -1.12192  -1.11627  -1.11460
 Alpha  occ. eigenvalues --   -1.10827  -1.10350  -1.08604  -1.05002  -1.04869
 Alpha  occ. eigenvalues --   -1.03667  -1.03536  -1.01275  -1.01084  -1.00648
 Alpha  occ. eigenvalues --   -1.00229  -0.99329  -0.97400  -0.91896  -0.90978
 Alpha  occ. eigenvalues --   -0.90544  -0.89815  -0.87334  -0.87160  -0.85379
 Alpha  occ. eigenvalues --   -0.85098  -0.84295  -0.83173  -0.82305  -0.80970
 Alpha  occ. eigenvalues --   -0.80489  -0.80449  -0.79921  -0.78648  -0.78297
 Alpha  occ. eigenvalues --   -0.76663  -0.75832  -0.74880  -0.73560  -0.73010
 Alpha  occ. eigenvalues --   -0.72804  -0.72498  -0.71724  -0.70861  -0.69788
 Alpha  occ. eigenvalues --   -0.68836  -0.68348  -0.67865  -0.67670  -0.67308
 Alpha  occ. eigenvalues --   -0.66827  -0.66216  -0.65729  -0.65335  -0.65143
 Alpha  occ. eigenvalues --   -0.65005  -0.64555  -0.64251  -0.64041  -0.63941
 Alpha  occ. eigenvalues --   -0.63125  -0.62606  -0.62276  -0.61710  -0.60780
 Alpha  occ. eigenvalues --   -0.60234  -0.59915  -0.59359  -0.59159  -0.58415
 Alpha  occ. eigenvalues --   -0.58175  -0.57864  -0.57632  -0.56899  -0.56613
 Alpha  occ. eigenvalues --   -0.56047  -0.55685  -0.55404  -0.55083  -0.54817
 Alpha  occ. eigenvalues --   -0.54750  -0.54437  -0.53896  -0.53638  -0.53350
 Alpha  occ. eigenvalues --   -0.52949  -0.52523  -0.52338  -0.52096  -0.51769
 Alpha  occ. eigenvalues --   -0.51621  -0.51440  -0.51128  -0.50954  -0.50676
 Alpha  occ. eigenvalues --   -0.50439  -0.50098  -0.49872  -0.49576  -0.49501
 Alpha  occ. eigenvalues --   -0.49216  -0.48813  -0.48549  -0.48364  -0.48005
 Alpha  occ. eigenvalues --   -0.47968  -0.47845  -0.47626  -0.47321  -0.47113
 Alpha  occ. eigenvalues --   -0.46999  -0.46873  -0.46604  -0.46457  -0.46284
 Alpha  occ. eigenvalues --   -0.46181  -0.46004  -0.45580  -0.45437  -0.45159
 Alpha  occ. eigenvalues --   -0.44988  -0.44760  -0.44628  -0.44430  -0.44137
 Alpha  occ. eigenvalues --   -0.43898  -0.43805  -0.43722  -0.43192  -0.43094
 Alpha  occ. eigenvalues --   -0.42865  -0.42666  -0.42556  -0.42228  -0.42166
 Alpha  occ. eigenvalues --   -0.42077  -0.41911  -0.41780  -0.40177  -0.40089
 Alpha  occ. eigenvalues --   -0.39874  -0.39512  -0.39314  -0.39186  -0.38982
 Alpha  occ. eigenvalues --   -0.38640  -0.38378  -0.38278  -0.37628  -0.36276
 Alpha  occ. eigenvalues --   -0.34960  -0.34615  -0.34390  -0.34135  -0.33826
 Alpha  occ. eigenvalues --   -0.33559  -0.33492  -0.32870  -0.32800  -0.32586
 Alpha  occ. eigenvalues --   -0.31549  -0.31096  -0.30941  -0.30688  -0.30455
 Alpha  occ. eigenvalues --   -0.29853  -0.27635
 Alpha virt. eigenvalues --   -0.11020  -0.10115  -0.08942  -0.07310  -0.07179
 Alpha virt. eigenvalues --   -0.06585  -0.06345  -0.06193  -0.05692  -0.05231
 Alpha virt. eigenvalues --   -0.05033  -0.04208  -0.04081  -0.04043  -0.02820

 Mulliken charges:
               1
     1  N   -0.793041
     2  H    0.426478
     3  H    0.435809
     4  H    0.395724
     5  C   -0.117332
     6  H    0.201875
     7  C    0.665219
     8  C   -0.376888
     9  H    0.191319
    10  H    0.178385
    11  O   -0.539543
    12  C    0.140899
    13  C   -0.214600
    14  H    0.153428
    15  C   -0.163704
    16  H    0.132627
    17  C   -0.126502
    18  H    0.139865
    19  C   -0.126697
    20  H    0.145367
    21  C   -0.125794
    22  H    0.145162
    23  N   -0.643458
    24  H    0.372087
    25  C    0.002126
    26  H    0.191265
    27  C    0.611084
    28  C   -0.504752
    29  H    0.154173
    30  H    0.169752
    31  H    0.219369
    32  O   -0.542456
    33  N   -0.605416
    34  H    0.347087
    35  C   -0.066193
    36  H    0.193657
    37  C    0.616057
    38  C   -0.459772
    39  H    0.185050
    40  H    0.166734
    41  H    0.155767
    42  O   -0.520986
    43  N   -0.641125
    44  H    0.393197
    45  C   -0.032124
    46  H    0.178896
    47  C    0.618762
    48  C   -0.381195
    49  H    0.146192
    50  H    0.194036
    51  O   -0.526708
    52  C    0.180224
    53  C   -0.193856
    54  H    0.129596
    55  C   -0.219006
    56  H    0.158789
    57  C   -0.183575
    58  H    0.142408
    59  C   -0.192640
    60  H    0.136353
    61  O   -0.727324
    62  H    0.454429
    63  C    0.341739
    64  N   -0.598897
    65  H    0.343022
    66  C   -0.077366
    67  H    0.183472
    68  C    0.641441
    69  C   -0.267594
    70  H    0.149395
    71  H    0.136924
    72  O   -0.548472
    73  C   -0.068748
    74  H    0.134891
    75  C   -0.448075
    76  H    0.140804
    77  H    0.152326
    78  H    0.151538
    79  C   -0.447014
    80  H    0.145663
    81  H    0.139664
    82  H    0.154590
    83  N   -0.630319
    84  H    0.360827
    85  C    0.006288
    86  H    0.178221
    87  C    0.561541
    88  C   -0.312038
    89  H    0.207292
    90  H    0.137942
    91  O   -0.500398
    92  C   -0.368835
    93  H    0.202595
    94  H    0.240077
    95  C    0.593978
    96  O   -0.519403
    97  O   -0.530614
    98  N   -0.662324
    99  H    0.372845
   100  C   -0.057857
   101  H    0.194719
   102  C    0.616922
   103  C   -0.293311
   104  H    0.192216
   105  H    0.143890
   106  O   -0.594647
   107  C   -0.320913
   108  H    0.200605
   109  H    0.176089
   110  C   -0.160320
   111  H    0.184740
   112  H    0.167368
   113  N   -0.620391
   114  H    0.395044
   115  N   -0.764011
   116  H    0.377256
   117  H    0.386240
   118  N   -0.792669
   119  H    0.363445
   120  H    0.422954
   121  C    0.818194
   122  O   -0.598978
   123  H    0.421881
 Sum of Mulliken charges =   1.00000

 Dipole moment (field-independent basis, Debye):
    X=             14.5125    Y=              7.4083    Z=             -6.6693  Tot=             17.6061
 Quadrupole moment (field-independent basis, Debye-Ang):
   XX=           -186.2086   YY=           -297.8740   ZZ=           -302.5063
   XY=             15.2900   XZ=           -105.9442   YZ=              6.8524

 Normal termination of Gaussian 16 at Mon Jul 18 02:04:21 2022.
