 Gaussian 16, Revision C.01,
 Gaussian 16:  ES64L-G16RevC.01  3-Jul-2019

 -------------------------------------------------------------------
 # B3LYP/6-31G* guess=read geom=check nosymm integral(ultrafinegrid)
 -------------------------------------------------------------------

 ------------------------------------------------------
 Candidate Structure: Conf:304 Charge calc in gas phase
 ------------------------------------------------------
 Structure from the checkpoint file:  "conf-304.chk"
 Charge =  1 Multiplicity = 1

                          Input orientation:
 ---------------------------------------------------------------------
 Center     Atomic      Atomic             Coordinates (Angstroms)
 Number     Number       Type             X           Y           Z
 ---------------------------------------------------------------------
      1          7           0      -11.173345    7.915889    4.431493
      2          1           0      -11.564980    8.332839    3.582541
      3          1           0      -11.341649    8.556917    5.221710
      4          1           0      -11.614592    6.965172    4.568813
      5          6           0       -9.705619    7.580863    4.300406
      6          1           0       -9.287547    8.191916    3.497934
      7          6           0       -9.720235    6.069749    3.949298
      8          6           0       -8.980454    7.862020    5.640580
      9          1           0       -7.912764    7.688330    5.469226
     10          1           0       -9.307561    7.118361    6.377178
     11          8           0      -10.772559    5.447022    4.161092
     12          6           0       -9.235932    9.264423    6.152564
     13          6           0       -8.566127   10.366334    5.599641
     14          1           0       -7.807550   10.211914    4.835065
     15          6           0      -10.194529    9.485997    7.155018
     16          1           0      -10.685077    8.638512    7.632261
     17          6           0       -8.847702   11.658535    6.040302
     18          1           0       -8.312157   12.501617    5.613932
     19          6           0      -10.480109   10.783704    7.592782
     20          1           0      -11.213031   10.938554    8.379004
     21          6           0       -9.808678   11.870209    7.033853
     22          1           0      -10.022542   12.877797    7.377222
     23          7           0       -8.586496    5.564830    3.484454
     24          1           0       -7.727323    6.114365    3.377648
     25          6           0       -8.346474    4.148554    3.202668
     26          1           0       -8.692051    3.556494    4.057974
     27          6           0       -6.804111    4.049931    3.085615
     28          6           0       -9.065146    3.679667    1.927818
     29          1           0       -8.871154    2.618526    1.744942
     30          1           0       -8.718775    4.247187    1.058261
     31          1           0      -10.144532    3.813227    2.037432
     32          8           0       -6.123789    5.083461    3.078229
     33          7           0       -6.308973    2.812112    2.988083
     34          1           0       -6.902750    1.984716    2.932056
     35          6           0       -4.901473    2.509028    2.754093
     36          1           0       -4.517206    3.196578    1.991659
     37          6           0       -4.891133    1.063508    2.207655
     38          6           0       -4.056993    2.648243    4.032230
     39          1           0       -3.004000    2.426251    3.831310
     40          1           0       -4.413865    1.960000    4.805282
     41          1           0       -4.126313    3.672954    4.406630
     42          8           0       -5.909320    0.367244    2.270851
     43          7           0       -3.725194    0.650632    1.683020
     44          1           0       -2.873823    1.202037    1.769981
     45          6           0       -3.479561   -0.724342    1.266261
     46          1           0       -3.916578   -1.391023    2.021385
     47          6           0       -1.943531   -0.891185    1.301926
     48          6           0       -4.144595   -1.074824   -0.095604
     49          1           0       -4.182274   -2.168418   -0.177212
     50          1           0       -5.188203   -0.751274   -0.008615
     51          8           0       -1.224988    0.047882    1.652128
     52          6           0       -3.483940   -0.510958   -1.336085
     53          6           0       -3.439282    0.866304   -1.610386
     54          1           0       -3.910119    1.566217   -0.925056
     55          6           0       -2.894983   -1.375228   -2.266829
     56          1           0       -2.913972   -2.448058   -2.095814
     57          6           0       -2.796001    1.363077   -2.740308
     58          1           0       -2.750384    2.429853   -2.937442
     59          6           0       -2.265501   -0.895052   -3.412932
     60          1           0       -1.833654   -1.585433   -4.130352
     61          8           0       -1.549594    1.011031   -4.723281
     62          1           0       -1.044084    0.309123   -5.175092
     63          6           0       -2.185916    0.483532   -3.646011
     64          7           0       -1.469806   -2.118699    0.986459
     65          1           0       -2.068633   -2.781371    0.504576
     66          6           0       -0.043515   -2.391463    0.836301
     67          1           0        0.474034   -1.432399    0.911748
     68          6           0        0.159750   -3.000332   -0.562008
     69          6           0        0.481689   -3.374804    1.908477
     70          1           0       -0.057760   -4.323491    1.784259
     71          1           0        1.537372   -3.587365    1.686366
     72          8           0       -0.726300   -3.667791   -1.097552
     73          6           0        0.358262   -2.900516    3.369060
     74          1           0       -0.699242   -2.664733    3.554700
     75          6           0        0.758924   -4.041019    4.317737
     76          1           0        1.811182   -4.320192    4.176310
     77          1           0        0.634510   -3.742042    5.364776
     78          1           0        0.150786   -4.937826    4.149851
     79          6           0        1.184991   -1.636493    3.650790
     80          1           0        2.246363   -1.802211    3.420925
     81          1           0        0.832020   -0.779755    3.068369
     82          1           0        1.118885   -1.363155    4.710443
     83          7           0        1.372959   -2.782248   -1.119003
     84          1           0        2.087768   -2.238424   -0.647758
     85          6           0        1.765157   -3.317274   -2.413201
     86          1           0        1.277755   -4.290336   -2.538099
     87          6           0        3.294674   -3.465934   -2.374598
     88          6           0        1.316176   -2.366002   -3.553538
     89          1           0        0.276878   -2.098522   -3.349761
     90          1           0        1.899703   -1.439982   -3.490156
     91          8           0        3.974811   -2.707150   -1.675818
     92          6           0        1.417437   -2.965021   -4.960431
     93          1           0        0.851249   -3.906653   -5.021934
     94          1           0        2.441373   -3.220884   -5.252996
     95          6           0        0.842733   -2.053482   -6.023579
     96          8           0        0.125784   -1.087972   -5.831296
     97          8           0        1.200300   -2.442588   -7.259110
     98          7           0        3.812016   -4.439731   -3.154473
     99          1           0        3.213565   -4.950164   -3.796734
    100          6           0        5.231073   -4.537402   -3.467387
    101          1           0        5.673052   -3.562274   -3.265209
    102          6           0        5.365293   -4.833127   -4.968142
    103          6           0        5.959584   -5.621889   -2.632660
    104          1           0        6.850495   -5.955042   -3.176679
    105          1           0        5.292145   -6.489355   -2.564731
    106          8           0        6.592740   -4.721614   -5.458738
    107          6           0        6.375116   -5.166391   -1.227368
    108          1           0        6.621825   -6.055991   -0.632716
    109          1           0        5.534793   -4.676216   -0.720944
    110          6           0        7.612308   -4.252935   -1.183759
    111          1           0        8.434540   -4.702026   -1.747009
    112          1           0        7.939220   -4.163036   -0.139400
    113          7           0        7.440355   -2.897884   -1.702291
    114          1           0        6.724510   -2.327168   -1.269386
    115          7           0        8.285577   -3.280953   -3.847551
    116          1           0        8.800108   -2.789489   -4.578771
    117          1           0        7.229032   -4.319686   -4.782749
    118          7           0        7.916921   -1.075278   -3.014529
    119          1           0        8.280436   -0.690167   -3.875596
    120          1           0        8.174401   -0.551972   -2.187125
    121          6           0        7.920324   -2.457592   -2.907072
    122          8           0        4.410218   -5.173502   -5.641863
    123          1           0        0.772951   -1.830170   -7.888164
 ---------------------------------------------------------------------

 SCF Done:  E(RB3LYP) =  -2974.05082434     A.U. after    1 cycles

 Alpha  occ. eigenvalues --  -19.26106 -19.25326 -19.21392 -19.20942 -19.20440
 Alpha  occ. eigenvalues --  -19.19510 -19.19015 -19.17980 -19.17770 -19.17009
 Alpha  occ. eigenvalues --  -19.16866 -14.59284 -14.48713 -14.44565 -14.42402
 Alpha  occ. eigenvalues --  -14.41657 -14.41621 -14.41412 -14.40929 -14.40393
 Alpha  occ. eigenvalues --  -14.35261 -10.42975 -10.40415 -10.38482 -10.38370
 Alpha  occ. eigenvalues --  -10.35942 -10.35167 -10.35005 -10.34921 -10.34780
 Alpha  occ. eigenvalues --  -10.34246 -10.34114 -10.33950 -10.32183 -10.31309
 Alpha  occ. eigenvalues --  -10.30922 -10.30556 -10.30253 -10.30137 -10.29879
 Alpha  occ. eigenvalues --  -10.29609 -10.29232 -10.28461 -10.27989 -10.27878
 Alpha  occ. eigenvalues --  -10.27808 -10.26730 -10.25705 -10.25446 -10.24628
 Alpha  occ. eigenvalues --  -10.24426 -10.23716 -10.23686 -10.23443 -10.23263
 Alpha  occ. eigenvalues --  -10.22686 -10.22618 -10.22298 -10.21725 -10.21668
 Alpha  occ. eigenvalues --  -10.21555 -10.21200  -1.18521  -1.16609  -1.13567
 Alpha  occ. eigenvalues --   -1.13044  -1.12509  -1.10917  -1.09842  -1.09531
 Alpha  occ. eigenvalues --   -1.08563  -1.08025  -1.07370  -1.05365  -1.04547
 Alpha  occ. eigenvalues --   -1.03690  -1.01267  -0.99151  -0.98207  -0.98144
 Alpha  occ. eigenvalues --   -0.97882  -0.97571  -0.94448  -0.93037  -0.90226
 Alpha  occ. eigenvalues --   -0.88828  -0.88577  -0.86510  -0.86175  -0.85794
 Alpha  occ. eigenvalues --   -0.85533  -0.84519  -0.84216  -0.82536  -0.80848
 Alpha  occ. eigenvalues --   -0.79512  -0.79345  -0.77973  -0.77647  -0.76718
 Alpha  occ. eigenvalues --   -0.76551  -0.73871  -0.73516  -0.72988  -0.72526
 Alpha  occ. eigenvalues --   -0.72308  -0.71604  -0.71398  -0.71168  -0.70114
 Alpha  occ. eigenvalues --   -0.70025  -0.69164  -0.66908  -0.66152  -0.66021
 Alpha  occ. eigenvalues --   -0.65580  -0.65358  -0.64934  -0.64518  -0.63898
 Alpha  occ. eigenvalues --   -0.63723  -0.63401  -0.63071  -0.62884  -0.62683
 Alpha  occ. eigenvalues --   -0.61963  -0.61706  -0.60448  -0.60217  -0.59601
 Alpha  occ. eigenvalues --   -0.59061  -0.58265  -0.57847  -0.57609  -0.57307
 Alpha  occ. eigenvalues --   -0.56997  -0.56442  -0.56048  -0.55835  -0.55317
 Alpha  occ. eigenvalues --   -0.54805  -0.54617  -0.54397  -0.53711  -0.53429
 Alpha  occ. eigenvalues --   -0.53268  -0.53249  -0.53052  -0.52655  -0.52387
 Alpha  occ. eigenvalues --   -0.52188  -0.51889  -0.51826  -0.51613  -0.51242
 Alpha  occ. eigenvalues --   -0.51024  -0.50964  -0.50709  -0.50010  -0.49994
 Alpha  occ. eigenvalues --   -0.49884  -0.49562  -0.49162  -0.49008  -0.48735
 Alpha  occ. eigenvalues --   -0.48368  -0.48183  -0.47873  -0.47612  -0.47386
 Alpha  occ. eigenvalues --   -0.47248  -0.46885  -0.46700  -0.46674  -0.46512
 Alpha  occ. eigenvalues --   -0.45947  -0.45690  -0.45391  -0.45328  -0.45215
 Alpha  occ. eigenvalues --   -0.45160  -0.44958  -0.44898  -0.44519  -0.44262
 Alpha  occ. eigenvalues --   -0.43928  -0.43732  -0.43593  -0.43297  -0.43145
 Alpha  occ. eigenvalues --   -0.43086  -0.42695  -0.42399  -0.42190  -0.42040
 Alpha  occ. eigenvalues --   -0.41790  -0.40917  -0.40720  -0.40519  -0.40092
 Alpha  occ. eigenvalues --   -0.39953  -0.39825  -0.38995  -0.38795  -0.38668
 Alpha  occ. eigenvalues --   -0.38651  -0.37843  -0.37282  -0.36857  -0.36827
 Alpha  occ. eigenvalues --   -0.36651  -0.36623  -0.36152  -0.35642  -0.35606
 Alpha  occ. eigenvalues --   -0.34568  -0.34178  -0.33957  -0.33425  -0.32997
 Alpha  occ. eigenvalues --   -0.32688  -0.32333  -0.31970  -0.31730  -0.31523
 Alpha  occ. eigenvalues --   -0.31256  -0.30460  -0.30319  -0.29915  -0.28510
 Alpha  occ. eigenvalues --   -0.28375  -0.24720
 Alpha virt. eigenvalues --   -0.12921  -0.12298  -0.10741  -0.09651  -0.06943
 Alpha virt. eigenvalues --   -0.05113  -0.04924  -0.04423  -0.04002  -0.03620
 Alpha virt. eigenvalues --   -0.03468  -0.02480  -0.02419  -0.02172  -0.02077

 Mulliken charges:
               1
     1  N   -0.751173
     2  H    0.415169
     3  H    0.404370
     4  H    0.427091
     5  C   -0.111387
     6  H    0.213234
     7  C    0.657059
     8  C   -0.385226
     9  H    0.210577
    10  H    0.194056
    11  O   -0.543424
    12  C    0.138405
    13  C   -0.181486
    14  H    0.148051
    15  C   -0.229939
    16  H    0.151181
    17  C   -0.122333
    18  H    0.168173
    19  C   -0.120154
    20  H    0.167609
    21  C   -0.123679
    22  H    0.169498
    23  N   -0.613435
    24  H    0.373598
    25  C   -0.052296
    26  H    0.195765
    27  C    0.629648
    28  C   -0.458225
    29  H    0.183505
    30  H    0.170797
    31  H    0.187296
    32  O   -0.551798
    33  N   -0.620646
    34  H    0.366966
    35  C   -0.045564
    36  H    0.186721
    37  C    0.619436
    38  C   -0.454282
    39  H    0.171627
    40  H    0.164908
    41  H    0.181431
    42  O   -0.546752
    43  N   -0.616763
    44  H    0.365565
    45  C   -0.044073
    46  H    0.184740
    47  C    0.626732
    48  C   -0.378171
    49  H    0.147697
    50  H    0.185158
    51  O   -0.541193
    52  C    0.164475
    53  C   -0.184379
    54  H    0.109700
    55  C   -0.202496
    56  H    0.144987
    57  C   -0.159627
    58  H    0.131977
    59  C   -0.200244
    60  H    0.134702
    61  O   -0.674164
    62  H    0.449877
    63  C    0.347541
    64  N   -0.601542
    65  H    0.352665
    66  C   -0.082326
    67  H    0.185085
    68  C    0.640560
    69  C   -0.253091
    70  H    0.146637
    71  H    0.137711
    72  O   -0.549800
    73  C   -0.065937
    74  H    0.129851
    75  C   -0.444073
    76  H    0.141847
    77  H    0.146063
    78  H    0.143704
    79  C   -0.466551
    80  H    0.132942
    81  H    0.174324
    82  H    0.143344
    83  N   -0.616580
    84  H    0.352387
    85  C   -0.049494
    86  H    0.176758
    87  C    0.619323
    88  C   -0.271020
    89  H    0.194943
    90  H    0.163663
    91  O   -0.559227
    92  C   -0.388284
    93  H    0.193041
    94  H    0.207271
    95  C    0.596409
    96  O   -0.485557
    97  O   -0.543697
    98  N   -0.599853
    99  H    0.352317
   100  C   -0.092916
   101  H    0.197004
   102  C    0.604777
   103  C   -0.266906
   104  H    0.165474
   105  H    0.153685
   106  O   -0.604248
   107  C   -0.277480
   108  H    0.145698
   109  H    0.158413
   110  C   -0.129532
   111  H    0.184647
   112  H    0.150578
   113  N   -0.596034
   114  H    0.346205
   115  N   -0.725050
   116  H    0.292505
   117  H    0.468100
   118  N   -0.750900
   119  H    0.335914
   120  H    0.337836
   121  C    0.636468
   122  O   -0.483425
   123  H    0.418961
 Sum of Mulliken charges =   1.00000

 Dipole moment (field-independent basis, Debye):
    X=            -31.9960    Y=             30.6924    Z=             18.9793  Tot=             48.2285
 Quadrupole moment (field-independent basis, Debye-Ang):
   XX=            115.8117   YY=            -68.1152   ZZ=           -264.9216
   XY=           -342.2888   XZ=           -198.2492   YZ=            146.8165

 Normal termination of Gaussian 16 at Mon Jul 18 02:03:31 2022.
