 Gaussian 16, Revision C.01,
 Gaussian 16:  ES64L-G16RevC.01  3-Jul-2019

 -------------------------------------------------------------------
 # B3LYP/6-31G* guess=read geom=check nosymm integral(ultrafinegrid)
 -------------------------------------------------------------------

 ------------------------------------------------------
 Candidate Structure: Conf:399 Charge calc in gas phase
 ------------------------------------------------------
 Structure from the checkpoint file:  "conf-399.chk"
 Charge =  1 Multiplicity = 1

                          Input orientation:
 ---------------------------------------------------------------------
 Center     Atomic      Atomic             Coordinates (Angstroms)
 Number     Number       Type             X           Y           Z
 ---------------------------------------------------------------------
      1          7           0      -10.942290    4.658262    4.252328
      2          1           0      -11.200446    5.352497    3.545562
      3          1           0      -11.401914    4.906940    5.141824
      4          1           0      -11.221178    3.703847    3.896949
      5          6           0       -9.447264    4.524623    4.428500
      6          1           0       -8.979344    5.442015    4.065682
      7          6           0       -9.096996    3.294218    3.551275
      8          6           0       -9.113588    4.292265    5.923917
      9          1           0       -8.021907    4.291018    6.012018
     10          1           0       -9.455082    3.289120    6.206227
     11          8           0      -10.031715    2.555533    3.205685
     12          6           0       -9.738213    5.338746    6.823340
     13          6           0       -9.178637    6.620676    6.933369
     14          1           0       -8.249718    6.853212    6.416742
     15          6           0      -10.925441    5.054211    7.518052
     16          1           0      -11.344060    4.049006    7.486549
     17          6           0       -9.791434    7.593931    7.721104
     18          1           0       -9.340547    8.577948    7.809139
     19          6           0      -11.542355    6.033414    8.304112
     20          1           0      -12.451719    5.794740    8.847583
     21          6           0      -10.976907    7.303884    8.403738
     22          1           0      -11.449141    8.063343    9.019411
     23          7           0       -7.812017    3.118516    3.274032
     24          1           0       -7.072040    3.731047    3.631343
     25          6           0       -7.254000    1.968634    2.560542
     26          1           0       -7.661457    1.050567    2.999852
     27          6           0       -5.733807    2.054650    2.847098
     28          6           0       -7.574668    2.005985    1.057970
     29          1           0       -7.152528    1.132724    0.551560
     30          1           0       -7.157720    2.906523    0.596093
     31          1           0       -8.657275    1.993726    0.907962
     32          8           0       -5.274868    3.043189    3.431315
     33          7           0       -4.999118    1.021278    2.417984
     34          1           0       -5.393942    0.251803    1.879498
     35          6           0       -3.543341    0.978452    2.495429
     36          1           0       -3.153119    1.969439    2.236589
     37          6           0       -3.110144   -0.048835    1.428311
     38          6           0       -3.048253    0.592134    3.899966
     39          1           0       -1.954266    0.581145    3.939537
     40          1           0       -3.414877   -0.401384    4.177387
     41          1           0       -3.410019    1.322703    4.628184
     42          8           0       -3.937807   -0.809173    0.917197
     43          7           0       -1.800183   -0.050547    1.124217
     44          1           0       -1.133164    0.545769    1.606373
     45          6           0       -1.196558   -1.002355    0.203697
     46          1           0       -1.602593   -1.997961    0.415286
     47          6           0        0.310436   -0.983694    0.514779
     48          6           0       -1.515605   -0.643811   -1.281211
     49          1           0       -2.590910   -0.437613   -1.307269
     50          1           0       -0.993080    0.280830   -1.547660
     51          8           0        0.786116   -0.120736    1.266650
     52          6           0       -1.183065   -1.740360   -2.272060
     53          6           0       -0.173794   -1.569474   -3.234382
     54          1           0        0.366009   -0.627033   -3.274586
     55          6           0       -1.885503   -2.954947   -2.261593
     56          1           0       -2.689609   -3.106011   -1.544053
     57          6           0        0.129653   -2.575753   -4.147801
     58          1           0        0.903724   -2.440396   -4.896432
     59          6           0       -1.588267   -3.971386   -3.168749
     60          1           0       -2.148915   -4.904099   -3.146325
     61          8           0       -0.232286   -4.734877   -5.033477
     62          1           0       -0.809969   -5.507135   -4.929044
     63          6           0       -0.575943   -3.783937   -4.117524
     64          7           0        1.058291   -1.945335   -0.066141
     65          1           0        0.631933   -2.518785   -0.786009
     66          6           0        2.519247   -2.023088    0.098028
     67          1           0        2.723440   -1.693513    1.120344
     68          6           0        3.181706   -1.023536   -0.885419
     69          6           0        2.988865   -3.465289   -0.113716
     70          1           0        2.310919   -4.123596    0.445978
     71          1           0        2.878357   -3.706683   -1.177716
     72          8           0        3.725111   -1.413882   -1.934983
     73          6           0        4.439267   -3.759396    0.323355
     74          1           0        5.100616   -3.042341   -0.182417
     75          6           0        4.641093   -3.612141    1.839562
     76          1           0        3.989679   -4.303537    2.389685
     77          1           0        5.675966   -3.843611    2.114840
     78          1           0        4.431709   -2.597632    2.197500
     79          6           0        4.842619   -5.167016   -0.141109
     80          1           0        4.206568   -5.931085    0.324188
     81          1           0        4.751242   -5.271482   -1.228373
     82          1           0        5.880033   -5.388472    0.132784
     83          7           0        3.060223    0.260132   -0.525798
     84          1           0        2.563977    0.436529    0.343764
     85          6           0        3.328313    1.406871   -1.392055
     86          1           0        2.998327    1.142151   -2.400143
     87          6           0        4.829928    1.778824   -1.415998
     88          6           0        2.485553    2.607589   -0.867774
     89          1           0        1.605118    2.196125   -0.360625
     90          1           0        3.067747    3.143390   -0.109337
     91          8           0        5.573050    1.489183   -0.468237
     92          6           0        2.008140    3.602024   -1.932836
     93          1           0        2.827313    3.989078   -2.567211
     94          1           0        1.581275    4.489749   -1.450375
     95          6           0        0.953289    3.019496   -2.837305
     96          8           0        0.625779    1.844023   -2.895990
     97          8           0        0.377754    3.955995   -3.615849
     98          7           0        5.207535    2.448330   -2.524835
     99          1           0        4.470777    2.769371   -3.182180
    100          6           0        6.194035    3.545582   -2.546480
    101          1           0        6.349798    3.892572   -1.518504
    102          6           0        5.511470    4.710139   -3.389906
    103          6           0        7.559790    3.209161   -3.159175
    104          1           0        8.101971    4.157514   -3.189656
    105          1           0        7.412059    2.924159   -4.211066
    106          8           0        4.364823    4.414194   -3.860230
    107          6           0        8.366380    2.128195   -2.401181
    108          1           0        7.835230    1.860760   -1.480886
    109          1           0        9.339434    2.521192   -2.080390
    110          6           0        8.666916    0.866814   -3.228602
    111          1           0        9.094732    0.072694   -2.607917
    112          1           0        9.395439    1.091985   -4.012916
    113          7           0        7.503238    0.298320   -3.932735
    114          1           0        7.284438    0.702644   -4.833029
    115          7           0        6.585653   -0.733735   -2.050459
    116          1           0        5.760331   -1.234953   -1.727575
    117          1           0        6.836617    0.019095   -1.410359
    118          7           0        5.537075   -0.935036   -4.099793
    119          1           0        4.671041   -1.163614   -3.611893
    120          1           0        5.505832   -0.778901   -5.096510
    121          6           0        6.533206   -0.418924   -3.360013
    122          8           0        6.183795    5.739170   -3.506089
    123          1           0       -0.247527    3.487036   -4.199838
 ---------------------------------------------------------------------

 SCF Done:  E(RB3LYP) =  -2974.01817184     A.U. after    1 cycles

 Alpha  occ. eigenvalues --  -19.26583 -19.23884 -19.23580 -19.22165 -19.20530
 Alpha  occ. eigenvalues --  -19.20217 -19.19582 -19.18755 -19.15430 -19.07887
 Alpha  occ. eigenvalues --  -19.06505 -14.59696 -14.49252 -14.45471 -14.45342
 Alpha  occ. eigenvalues --  -14.44425 -14.44301 -14.43932 -14.42965 -14.42440
 Alpha  occ. eigenvalues --  -14.37284 -10.43469 -10.40823 -10.40748 -10.39167
 Alpha  occ. eigenvalues --  -10.37279 -10.37216 -10.36672 -10.36053 -10.34938
 Alpha  occ. eigenvalues --  -10.34314 -10.32471 -10.32304 -10.32188 -10.31351
 Alpha  occ. eigenvalues --  -10.31199 -10.30903 -10.30822 -10.30506 -10.30506
 Alpha  occ. eigenvalues --  -10.30382 -10.30123 -10.29121 -10.28495 -10.28391
 Alpha  occ. eigenvalues --  -10.26375 -10.25680 -10.25499 -10.25342 -10.25230
 Alpha  occ. eigenvalues --  -10.25057 -10.24951 -10.24870 -10.24663 -10.24627
 Alpha  occ. eigenvalues --  -10.24296 -10.23242 -10.22821 -10.22795 -10.22710
 Alpha  occ. eigenvalues --  -10.22583 -10.20883  -1.18985  -1.15013  -1.14240
 Alpha  occ. eigenvalues --   -1.13629  -1.12537  -1.11735  -1.11668  -1.10634
 Alpha  occ. eigenvalues --   -1.09440  -1.06616  -1.05913  -1.05789  -1.02150
 Alpha  occ. eigenvalues --   -1.00872  -1.00666  -1.00462  -0.99255  -0.98833
 Alpha  occ. eigenvalues --   -0.97858  -0.97005  -0.94381  -0.93417  -0.91720
 Alpha  occ. eigenvalues --   -0.91405  -0.89297  -0.87693  -0.86759  -0.86095
 Alpha  occ. eigenvalues --   -0.85679  -0.85032  -0.83945  -0.83506  -0.81636
 Alpha  occ. eigenvalues --   -0.80647  -0.79890  -0.79267  -0.78449  -0.77201
 Alpha  occ. eigenvalues --   -0.76879  -0.74756  -0.73926  -0.73643  -0.73365
 Alpha  occ. eigenvalues --   -0.73032  -0.72458  -0.71886  -0.71573  -0.70478
 Alpha  occ. eigenvalues --   -0.70379  -0.70115  -0.68936  -0.68111  -0.67938
 Alpha  occ. eigenvalues --   -0.67076  -0.66743  -0.66431  -0.66203  -0.65345
 Alpha  occ. eigenvalues --   -0.64300  -0.63971  -0.63380  -0.63055  -0.62799
 Alpha  occ. eigenvalues --   -0.62199  -0.61475  -0.61267  -0.60151  -0.59678
 Alpha  occ. eigenvalues --   -0.59448  -0.59210  -0.57961  -0.57672  -0.57630
 Alpha  occ. eigenvalues --   -0.57346  -0.57215  -0.57040  -0.56694  -0.56425
 Alpha  occ. eigenvalues --   -0.55997  -0.55317  -0.55060  -0.54848  -0.54048
 Alpha  occ. eigenvalues --   -0.53865  -0.53675  -0.53554  -0.53318  -0.53152
 Alpha  occ. eigenvalues --   -0.52839  -0.52444  -0.52289  -0.52150  -0.51794
 Alpha  occ. eigenvalues --   -0.51711  -0.51682  -0.51372  -0.51082  -0.50748
 Alpha  occ. eigenvalues --   -0.50358  -0.49984  -0.49717  -0.49152  -0.49029
 Alpha  occ. eigenvalues --   -0.48930  -0.48689  -0.48375  -0.48110  -0.48071
 Alpha  occ. eigenvalues --   -0.47761  -0.47740  -0.47635  -0.47348  -0.47002
 Alpha  occ. eigenvalues --   -0.46760  -0.46383  -0.46107  -0.45949  -0.45875
 Alpha  occ. eigenvalues --   -0.45651  -0.45587  -0.45252  -0.45083  -0.44962
 Alpha  occ. eigenvalues --   -0.44430  -0.44191  -0.43886  -0.43779  -0.43712
 Alpha  occ. eigenvalues --   -0.43283  -0.42231  -0.42201  -0.42022  -0.41847
 Alpha  occ. eigenvalues --   -0.41284  -0.41170  -0.40751  -0.40486  -0.39749
 Alpha  occ. eigenvalues --   -0.39345  -0.39201  -0.38951  -0.38666  -0.38373
 Alpha  occ. eigenvalues --   -0.38278  -0.38221  -0.37453  -0.37033  -0.36886
 Alpha  occ. eigenvalues --   -0.36444  -0.36392  -0.36354  -0.36267  -0.35960
 Alpha  occ. eigenvalues --   -0.35789  -0.35476  -0.34795  -0.34509  -0.33915
 Alpha  occ. eigenvalues --   -0.33860  -0.33530  -0.32728  -0.32323  -0.31850
 Alpha  occ. eigenvalues --   -0.31112  -0.29498  -0.28523  -0.27707  -0.22877
 Alpha  occ. eigenvalues --   -0.22764  -0.20518
 Alpha virt. eigenvalues --   -0.13275  -0.12577  -0.11153  -0.10008  -0.07751
 Alpha virt. eigenvalues --   -0.07281  -0.06232  -0.06045  -0.05894  -0.04910
 Alpha virt. eigenvalues --   -0.04787  -0.04566  -0.03510  -0.02789  -0.02510

 Mulliken charges:
               1
     1  N   -0.750781
     2  H    0.415846
     3  H    0.404941
     4  H    0.427041
     5  C   -0.111746
     6  H    0.214058
     7  C    0.657061
     8  C   -0.385127
     9  H    0.210218
    10  H    0.193911
    11  O   -0.542476
    12  C    0.138027
    13  C   -0.181531
    14  H    0.148328
    15  C   -0.230236
    16  H    0.151099
    17  C   -0.122192
    18  H    0.169449
    19  C   -0.119983
    20  H    0.168256
    21  C   -0.123482
    22  H    0.170579
    23  N   -0.614440
    24  H    0.374335
    25  C   -0.051137
    26  H    0.196432
    27  C    0.629440
    28  C   -0.458747
    29  H    0.180497
    30  H    0.171323
    31  H    0.189372
    32  O   -0.548670
    33  N   -0.620067
    34  H    0.365751
    35  C   -0.045831
    36  H    0.186641
    37  C    0.626198
    38  C   -0.451108
    39  H    0.167794
    40  H    0.166266
    41  H    0.184070
    42  O   -0.548490
    43  N   -0.625692
    44  H    0.362594
    45  C   -0.047056
    46  H    0.185624
    47  C    0.631738
    48  C   -0.369224
    49  H    0.182674
    50  H    0.190056
    51  O   -0.563837
    52  C    0.107971
    53  C   -0.212549
    54  H    0.182946
    55  C   -0.198075
    56  H    0.145909
    57  C   -0.159430
    58  H    0.144783
    59  C   -0.193632
    60  H    0.130004
    61  O   -0.635262
    62  H    0.412778
    63  C    0.352428
    64  N   -0.609261
    65  H    0.359364
    66  C   -0.072952
    67  H    0.188211
    68  C    0.639808
    69  C   -0.275480
    70  H    0.141856
    71  H    0.159487
    72  O   -0.592223
    73  C   -0.084193
    74  H    0.131288
    75  C   -0.452454
    76  H    0.145243
    77  H    0.156662
    78  H    0.147853
    79  C   -0.445473
    80  H    0.144638
    81  H    0.147933
    82  H    0.152356
    83  N   -0.591074
    84  H    0.381103
    85  C   -0.032040
    86  H    0.175596
    87  C    0.583515
    88  C   -0.313055
    89  H    0.151897
    90  H    0.173252
    91  O   -0.568354
    92  C   -0.405625
    93  H    0.273289
    94  H    0.177936
    95  C    0.584199
    96  O   -0.494124
    97  O   -0.544953
    98  N   -0.604816
    99  H    0.346647
   100  C   -0.086247
   101  H    0.155288
   102  C    0.583959
   103  C   -0.263315
   104  H    0.190754
   105  H    0.106297
   106  O   -0.611978
   107  C   -0.294007
   108  H    0.175188
   109  H    0.157125
   110  C   -0.174764
   111  H    0.181543
   112  H    0.176135
   113  N   -0.577319
   114  H    0.354468
   115  N   -0.774030
   116  H    0.395351
   117  H    0.397175
   118  N   -0.774861
   119  H    0.411080
   120  H    0.355994
   121  C    0.764356
   122  O   -0.557744
   123  H    0.407857
 Sum of Mulliken charges =   1.00000

 Dipole moment (field-independent basis, Debye):
    X=            -39.8268    Y=              5.0703    Z=             18.6722  Tot=             44.2779
 Quadrupole moment (field-independent basis, Debye-Ang):
   XX=            100.2548   YY=           -295.9048   ZZ=           -240.4717
   XY=           -276.9209   XZ=           -213.6177   YZ=            155.8228

 Normal termination of Gaussian 16 at Mon Jul 18 02:09:10 2022.
