 Gaussian 16, Revision C.01,
 Gaussian 16:  ES64L-G16RevC.01  3-Jul-2019

 -------------------------------------------------------------------
 # B3LYP/6-31G* guess=read geom=check nosymm integral(ultrafinegrid)
 -------------------------------------------------------------------

 ------------------------------------------------------
 Candidate Structure: Conf:367 Charge calc in gas phase
 ------------------------------------------------------
 Structure from the checkpoint file:  "conf-367.chk"
 Charge =  1 Multiplicity = 1

                          Input orientation:
 ---------------------------------------------------------------------
 Center     Atomic      Atomic             Coordinates (Angstroms)
 Number     Number       Type             X           Y           Z
 ---------------------------------------------------------------------
      1          7           0      -12.130832    3.692139    5.422699
      2          1           0      -12.724228    4.417080    5.010082
      3          1           0      -12.455075    3.506440    6.375877
      4          1           0      -12.177100    2.811443    4.811946
      5          6           0      -10.647651    4.011283    5.348556
      6          1           0      -10.536554    5.069357    5.103524
      7          6           0      -10.185863    3.103191    4.170596
      8          6           0       -9.975498    3.693335    6.703780
      9          1           0      -10.074293    2.619119    6.902335
     10          1           0      -10.537713    4.224863    7.484849
     11          8           0      -10.981220    2.216141    3.805551
     12          6           0       -8.517616    4.105282    6.757330
     13          6           0       -7.503985    3.140249    6.787931
     14          1           0       -7.762526    2.083957    6.777829
     15          6           0       -8.167908    5.463449    6.784959
     16          1           0       -8.943523    6.227724    6.788619
     17          6           0       -6.163786    3.525034    6.841617
     18          1           0       -5.387110    2.766713    6.871293
     19          6           0       -6.828398    5.847710    6.832024
     20          1           0       -6.569940    6.902109    6.855675
     21          6           0       -5.824141    4.877869    6.859875
     22          1           0       -4.781248    5.177225    6.899634
     23          7           0       -8.997169    3.339579    3.643233
     24          1           0       -8.347388    4.038725    4.017448
     25          6           0       -8.403823    2.552410    2.558263
     26          1           0       -8.495553    1.488838    2.805651
     27          6           0       -6.913631    2.969288    2.552640
     28          6           0       -9.083316    2.827385    1.206804
     29          1           0       -8.618872    2.230281    0.416483
     30          1           0       -8.989160    3.884347    0.938107
     31          1           0      -10.142132    2.560851    1.257066
     32          8           0       -6.547817    3.951005    3.207378
     33          7           0       -6.109976    2.211009    1.796988
     34          1           0       -6.459114    1.446735    1.218864
     35          6           0       -4.704708    2.506584    1.545508
     36          1           0       -4.600805    3.579365    1.345614
     37          6           0       -4.350237    1.703993    0.273913
     38          6           0       -3.809850    2.123117    2.736786
     39          1           0       -2.759667    2.355372    2.531826
     40          1           0       -3.890714    1.051616    2.946785
     41          1           0       -4.121204    2.685431    3.621092
     42          8           0       -5.121798    0.842166   -0.150391
     43          7           0       -3.170255    2.019896   -0.297069
     44          1           0       -2.496700    2.600852    0.194674
     45          6           0       -2.586217    1.263506   -1.393248
     46          1           0       -3.120173    0.311405   -1.461921
     47          6           0       -1.103574    1.048017   -1.030406
     48          6           0       -2.683547    2.018274   -2.750896
     49          1           0       -2.045928    2.908251   -2.686953
     50          1           0       -2.242033    1.372285   -3.520741
     51          8           0       -0.542187    1.802411   -0.231731
     52          6           0       -4.086317    2.424593   -3.144840
     53          6           0       -5.029756    1.475820   -3.568939
     54          1           0       -4.753491    0.424996   -3.614903
     55          6           0       -4.480521    3.765339   -3.105981
     56          1           0       -3.768777    4.524819   -2.790599
     57          6           0       -6.316554    1.846628   -3.940978
     58          1           0       -7.039926    1.110777   -4.277452
     59          6           0       -5.767858    4.156534   -3.478135
     60          1           0       -6.048691    5.208136   -3.449740
     61          8           0       -7.968154    3.507429   -4.275408
     62          1           0       -8.064918    4.472302   -4.291702
     63          6           0       -6.690215    3.195146   -3.898336
     64          7           0       -0.484598    0.040986   -1.676247
     65          1           0       -0.975724   -0.567643   -2.324315
     66          6           0        0.941993   -0.239799   -1.554202
     67          1           0        1.469114    0.716312   -1.485102
     68          6           0        1.318729   -0.980989   -2.848784
     69          6           0        1.227964   -1.091022   -0.289829
     70          1           0        0.724929   -0.584058    0.543049
     71          1           0        0.730295   -2.060414   -0.424328
     72          8           0        0.476633   -1.653861   -3.445936
     73          6           0        2.707600   -1.312096    0.085565
     74          1           0        3.228800   -1.771609   -0.765395
     75          6           0        3.428152    0.001257    0.431120
     76          1           0        2.930809    0.512624    1.264935
     77          1           0        4.465573   -0.193002    0.724760
     78          1           0        3.459202    0.703259   -0.410541
     79          6           0        2.793343   -2.295336    1.263762
     80          1           0        2.289258   -1.890650    2.150923
     81          1           0        2.322460   -3.255090    1.020529
     82          1           0        3.836738   -2.491454    1.535931
     83          7           0        2.596134   -0.835173   -3.273743
     84          1           0        3.291454   -0.398122   -2.675688
     85          6           0        3.164703   -1.633341   -4.350720
     86          1           0        2.535345   -2.520766   -4.477319
     87          6           0        4.582093   -2.040057   -3.902376
     88          6           0        3.237379   -0.860485   -5.690055
     89          1           0        3.883048    0.015003   -5.562203
     90          1           0        3.718608   -1.502243   -6.438392
     91          8           0        5.144655   -1.450617   -2.974058
     92          6           0        1.856879   -0.417813   -6.200317
     93          1           0        1.404165    0.268555   -5.474296
     94          1           0        1.178698   -1.266701   -6.311231
     95          6           0        1.910071    0.297661   -7.533973
     96          8           0        1.209400    0.058000   -8.490298
     97          8           0        2.842707    1.286431   -7.542660
     98          7           0        5.146942   -3.045682   -4.603814
     99          1           0        4.697922   -3.412053   -5.439636
    100          6           0        6.567736   -3.361513   -4.533142
    101          1           0        7.085295   -2.470720   -4.173659
    102          6           0        7.033277   -3.673782   -5.971081
    103          6           0        6.866622   -4.561777   -3.599760
    104          1           0        7.838520   -4.987750   -3.871602
    105          1           0        6.124615   -5.339528   -3.815487
    106          8           0        8.337742   -3.630640   -6.198399
    107          6           0        6.844847   -4.241785   -2.095026
    108          1           0        6.933076   -5.187893   -1.543224
    109          1           0        5.878845   -3.803386   -1.818904
    110          6           0        7.946070   -3.278776   -1.608815
    111          1           0        7.858205   -3.143579   -0.526142
    112          1           0        7.798951   -2.286528   -2.043362
    113          7           0        9.312334   -3.728775   -1.879324
    114          1           0        9.693909   -4.425469   -1.252863
    115          7           0        9.676628   -2.709600   -4.006817
    116          1           0        8.874855   -3.262822   -5.417935
    117          1           0        9.168719   -1.924241   -3.602046
    118          7           0       10.853363   -4.596133   -3.378991
    119          1           0       11.296503   -4.499373   -4.283797
    120          1           0       10.655575   -5.549956   -3.104803
    121          6           0        9.907862   -3.630105   -3.113336
    122          8           0        6.224927   -3.979610   -6.827711
    123          1           0        2.801985    1.687141   -8.431723
 ---------------------------------------------------------------------

 SCF Done:  E(RB3LYP) =  -2974.02805087     A.U. after    2 cycles

 Alpha  occ. eigenvalues --  -19.26669 -19.23198 -19.22863 -19.21167 -19.20713
 Alpha  occ. eigenvalues --  -19.19064 -19.17854 -19.17779 -19.17662 -19.17384
 Alpha  occ. eigenvalues --  -19.16656 -14.59798 -14.48926 -14.44456 -14.42707
 Alpha  occ. eigenvalues --  -14.41910 -14.41797 -14.41471 -14.41443 -14.40613
 Alpha  occ. eigenvalues --  -14.34899 -10.43308 -10.40820 -10.38213 -10.36119
 Alpha  occ. eigenvalues --  -10.35675 -10.35149 -10.35041 -10.34880 -10.34766
 Alpha  occ. eigenvalues --  -10.34754 -10.34230 -10.34215 -10.31402 -10.30837
 Alpha  occ. eigenvalues --  -10.29890 -10.29733 -10.29384 -10.29178 -10.29152
 Alpha  occ. eigenvalues --  -10.29113 -10.28649 -10.28529 -10.28512 -10.28376
 Alpha  occ. eigenvalues --  -10.27995 -10.27825 -10.25721 -10.25304 -10.24798
 Alpha  occ. eigenvalues --  -10.24557 -10.24237 -10.24208 -10.24196 -10.24154
 Alpha  occ. eigenvalues --  -10.24048 -10.23998 -10.23952 -10.23861 -10.23360
 Alpha  occ. eigenvalues --  -10.22176 -10.22171  -1.19089  -1.13956  -1.13678
 Alpha  occ. eigenvalues --   -1.12997  -1.12298  -1.11006  -1.10848  -1.10100
 Alpha  occ. eigenvalues --   -1.09523  -1.08981  -1.05526  -1.04916  -1.04420
 Alpha  occ. eigenvalues --   -1.03997  -1.01189  -0.99435  -0.98530  -0.98246
 Alpha  occ. eigenvalues --   -0.98017  -0.96547  -0.94930  -0.92647  -0.90360
 Alpha  occ. eigenvalues --   -0.90243  -0.88433  -0.86772  -0.85751  -0.85500
 Alpha  occ. eigenvalues --   -0.84787  -0.84433  -0.84325  -0.83112  -0.80928
 Alpha  occ. eigenvalues --   -0.79834  -0.79741  -0.79681  -0.78167  -0.76978
 Alpha  occ. eigenvalues --   -0.76692  -0.74153  -0.73785  -0.73113  -0.73017
 Alpha  occ. eigenvalues --   -0.72927  -0.71948  -0.71098  -0.70550  -0.69679
 Alpha  occ. eigenvalues --   -0.68887  -0.68264  -0.67499  -0.66882  -0.66365
 Alpha  occ. eigenvalues --   -0.66195  -0.65699  -0.64903  -0.64334  -0.64138
 Alpha  occ. eigenvalues --   -0.64028  -0.63645  -0.63477  -0.63150  -0.63019
 Alpha  occ. eigenvalues --   -0.62078  -0.61422  -0.61311  -0.61026  -0.60053
 Alpha  occ. eigenvalues --   -0.59417  -0.59319  -0.58586  -0.57433  -0.57228
 Alpha  occ. eigenvalues --   -0.56767  -0.56045  -0.55765  -0.55638  -0.54724
 Alpha  occ. eigenvalues --   -0.54450  -0.54099  -0.53992  -0.53776  -0.53492
 Alpha  occ. eigenvalues --   -0.53346  -0.53034  -0.52697  -0.52365  -0.52110
 Alpha  occ. eigenvalues --   -0.51944  -0.51824  -0.51552  -0.51449  -0.51290
 Alpha  occ. eigenvalues --   -0.51090  -0.50907  -0.50635  -0.50454  -0.50201
 Alpha  occ. eigenvalues --   -0.49597  -0.49573  -0.49217  -0.49028  -0.48707
 Alpha  occ. eigenvalues --   -0.48588  -0.48438  -0.48340  -0.47833  -0.47664
 Alpha  occ. eigenvalues --   -0.47416  -0.47187  -0.46923  -0.46795  -0.46693
 Alpha  occ. eigenvalues --   -0.46249  -0.45914  -0.45750  -0.45696  -0.45318
 Alpha  occ. eigenvalues --   -0.45208  -0.44991  -0.44940  -0.44645  -0.44478
 Alpha  occ. eigenvalues --   -0.44256  -0.44051  -0.43773  -0.43617  -0.43404
 Alpha  occ. eigenvalues --   -0.42986  -0.42951  -0.42577  -0.42125  -0.41726
 Alpha  occ. eigenvalues --   -0.41471  -0.41307  -0.41286  -0.41186  -0.40903
 Alpha  occ. eigenvalues --   -0.40792  -0.40182  -0.39666  -0.39383  -0.39002
 Alpha  occ. eigenvalues --   -0.38942  -0.38652  -0.38353  -0.37722  -0.37556
 Alpha  occ. eigenvalues --   -0.37397  -0.35393  -0.35338  -0.34879  -0.34679
 Alpha  occ. eigenvalues --   -0.34418  -0.33888  -0.33583  -0.33345  -0.32734
 Alpha  occ. eigenvalues --   -0.32583  -0.32243  -0.31804  -0.31698  -0.31318
 Alpha  occ. eigenvalues --   -0.31117  -0.30721  -0.30287  -0.30088  -0.29972
 Alpha  occ. eigenvalues --   -0.28752  -0.26716
 Alpha virt. eigenvalues --   -0.12365  -0.11103  -0.10868  -0.10024  -0.06883
 Alpha virt. eigenvalues --   -0.05985  -0.05304  -0.04868  -0.04455  -0.04090
 Alpha virt. eigenvalues --   -0.03495  -0.02853  -0.02557  -0.02367  -0.02148

 Mulliken charges:
               1
     1  N   -0.761613
     2  H    0.415492
     3  H    0.411955
     4  H    0.435837
     5  C   -0.106037
     6  H    0.217361
     7  C    0.654032
     8  C   -0.382684
     9  H    0.186248
    10  H    0.181457
    11  O   -0.550260
    12  C    0.145494
    13  C   -0.178489
    14  H    0.140995
    15  C   -0.188643
    16  H    0.128576
    17  C   -0.115145
    18  H    0.157016
    19  C   -0.118486
    20  H    0.158925
    21  C   -0.112386
    22  H    0.160566
    23  N   -0.606923
    24  H    0.388732
    25  C   -0.052198
    26  H    0.193073
    27  C    0.627439
    28  C   -0.458823
    29  H    0.188484
    30  H    0.168692
    31  H    0.185264
    32  O   -0.546294
    33  N   -0.622141
    34  H    0.367087
    35  C   -0.042354
    36  H    0.184546
    37  C    0.623877
    38  C   -0.456268
    39  H    0.169860
    40  H    0.164091
    41  H    0.178551
    42  O   -0.537012
    43  N   -0.604244
    44  H    0.354131
    45  C   -0.066763
    46  H    0.184899
    47  C    0.630994
    48  C   -0.365733
    49  H    0.157968
    50  H    0.163408
    51  O   -0.551757
    52  C    0.187839
    53  C   -0.168024
    54  H    0.131922
    55  C   -0.197964
    56  H    0.127102
    57  C   -0.158383
    58  H    0.145723
    59  C   -0.196424
    60  H    0.119301
    61  O   -0.642127
    62  H    0.407658
    63  C    0.346528
    64  N   -0.620292
    65  H    0.356523
    66  C   -0.050843
    67  H    0.177178
    68  C    0.612583
    69  C   -0.255096
    70  H    0.159981
    71  H    0.145016
    72  O   -0.542840
    73  C   -0.095044
    74  H    0.137289
    75  C   -0.446040
    76  H    0.150335
    77  H    0.151436
    78  H    0.138865
    79  C   -0.443958
    80  H    0.142623
    81  H    0.144632
    82  H    0.144575
    83  N   -0.609572
    84  H    0.362526
    85  C   -0.071932
    86  H    0.188466
    87  C    0.623285
    88  C   -0.277224
    89  H    0.175367
    90  H    0.166609
    91  O   -0.553967
    92  C   -0.336996
    93  H    0.177296
    94  H    0.190172
    95  C    0.565010
    96  O   -0.452718
    97  O   -0.564086
    98  N   -0.602947
    99  H    0.358942
   100  C   -0.073203
   101  H    0.166412
   102  C    0.598338
   103  C   -0.268728
   104  H    0.147844
   105  H    0.160771
   106  O   -0.601424
   107  C   -0.259864
   108  H    0.134303
   109  H    0.166543
   110  C   -0.165836
   111  H    0.161850
   112  H    0.179382
   113  N   -0.582000
   114  H    0.327804
   115  N   -0.736846
   116  H    0.464056
   117  H    0.299884
   118  N   -0.741252
   119  H    0.357420
   120  H    0.330909
   121  C    0.649754
   122  O   -0.478146
   123  H    0.412933
 Sum of Mulliken charges =   1.00000

 Dipole moment (field-independent basis, Debye):
    X=            -35.3556    Y=             13.9262    Z=             24.8254  Tot=             45.3901
 Quadrupole moment (field-independent basis, Debye-Ang):
   XX=            187.8655   YY=           -247.6586   ZZ=           -284.8370
   XY=           -235.6942   XZ=           -227.8082   YZ=             64.0666

 Normal termination of Gaussian 16 at Mon Jul 18 02:04:06 2022.
