 Gaussian 16, Revision C.01,
 Gaussian 16:  ES64L-G16RevC.01  3-Jul-2019

 -------------------------------------------------------------------
 # B3LYP/6-31G* guess=read geom=check nosymm integral(ultrafinegrid)
 -------------------------------------------------------------------

 ------------------------------------------------------
 Candidate Structure: Conf:961 Charge calc in gas phase
 ------------------------------------------------------
 Structure from the checkpoint file:  "conf-961.chk"
 Charge =  1 Multiplicity = 1

                          Input orientation:
 ---------------------------------------------------------------------
 Center     Atomic      Atomic             Coordinates (Angstroms)
 Number     Number       Type             X           Y           Z
 ---------------------------------------------------------------------
      1          7           0      -11.370621    6.965991    3.132021
      2          1           0      -11.718012    7.209505    2.200448
      3          1           0      -11.795415    7.597289    3.816710
      4          1           0      -11.607926    5.938797    3.337517
      5          6           0       -9.854964    6.923945    3.217308
      6          1           0       -9.447518    7.426454    2.337947
      7          6           0       -9.579186    5.391307    3.175237
      8          6           0       -9.383378    7.624767    4.511719
      9          1           0       -9.776541    7.073120    5.374444
     10          1           0       -9.834388    8.627262    4.529142
     11          8           0      -10.558769    4.644942    3.370732
     12          6           0       -7.875242    7.744148    4.606350
     13          6           0       -7.154044    6.975509    5.527587
     14          1           0       -7.679404    6.290127    6.188631
     15          6           0       -7.184065    8.632464    3.769400
     16          1           0       -7.731051    9.256247    3.064157
     17          6           0       -5.765702    7.088363    5.607978
     18          1           0       -5.217924    6.488772    6.328722
     19          6           0       -5.796162    8.741329    3.846434
     20          1           0       -5.272086    9.433574    3.194309
     21          6           0       -5.085029    7.967824    4.766050
     22          1           0       -4.004326    8.052919    4.826343
     23          7           0       -8.342360    5.000535    2.928411
     24          1           0       -7.555683    5.653834    2.845215
     25          6           0       -7.905541    3.602339    2.862998
     26          1           0       -8.239187    3.086943    3.771317
     27          6           0       -6.359548    3.689465    2.851242
     28          6           0       -8.461734    2.880190    1.624955
     29          1           0       -8.108932    1.845185    1.593118
     30          1           0       -8.138925    3.369722    0.702189
     31          1           0       -9.554097    2.866551    1.661489
     32          8           0       -5.805829    4.789345    2.761262
     33          7           0       -5.717196    2.515283    2.938985
     34          1           0       -6.217779    1.630609    2.865212
     35          6           0       -4.288122    2.360562    2.682495
     36          1           0       -3.968305    3.187648    2.040961
     37          6           0       -4.164043    1.021997    1.922662
     38          6           0       -3.461794    2.364486    3.978215
     39          1           0       -2.395259    2.244906    3.760193
     40          1           0       -3.773517    1.546391    4.635609
     41          1           0       -3.602812    3.313898    4.503156
     42          8           0       -5.063551    0.182354    2.001131
     43          7           0       -3.036824    0.868775    1.202973
     44          1           0       -2.287058    1.550881    1.245011
     45          6           0       -2.757359   -0.288133    0.371164
     46          1           0       -3.361207   -1.120445    0.743039
     47          6           0       -1.253485   -0.579609    0.495623
     48          6           0       -3.094660   -0.006535   -1.130075
     49          1           0       -2.391366    0.749686   -1.493555
     50          1           0       -2.898362   -0.918857   -1.706081
     51          8           0       -0.474254    0.308189    0.836813
     52          6           0       -4.505728    0.489498   -1.350674
     53          6           0       -4.745477    1.854625   -1.566264
     54          1           0       -3.901326    2.536990   -1.629901
     55          6           0       -5.605027   -0.376270   -1.324082
     56          1           0       -5.451419   -1.441550   -1.167990
     57          6           0       -6.039598    2.346230   -1.726636
     58          1           0       -6.220961    3.401389   -1.908511
     59          6           0       -6.905087    0.099718   -1.485118
     60          1           0       -7.746911   -0.590389   -1.458351
     61          8           0       -8.383885    2.002201   -1.809485
     62          1           0       -9.024010    1.275498   -1.865243
     63          6           0       -7.124070    1.467206   -1.677238
     64          7           0       -0.856151   -1.842572    0.165222
     65          1           0       -1.530479   -2.395672   -0.352552
     66          6           0        0.534633   -2.082281   -0.236193
     67          1           0        1.163967   -1.536435    0.469178
     68          6           0        0.709555   -1.503058   -1.658526
     69          6           0        0.857379   -3.584492   -0.220295
     70          1           0        0.217899   -4.075896   -0.967031
     71          1           0        1.889374   -3.708130   -0.578244
     72          8           0       -0.181569   -1.662152   -2.495798
     73          6           0        0.702864   -4.289217    1.142043
     74          1           0       -0.326675   -4.126055    1.490251
     75          6           0        0.912052   -5.801754    0.973960
     76          1           0        1.930794   -6.022492    0.628896
     77          1           0        0.762557   -6.328258    1.923527
     78          1           0        0.214485   -6.225312    0.241738
     79          6           0        1.654269   -3.722321    2.206123
     80          1           0        2.701360   -3.821791    1.889552
     81          1           0        1.463418   -2.663146    2.410163
     82          1           0        1.542619   -4.262697    3.153153
     83          7           0        1.844567   -0.807865   -1.877224
     84          1           0        2.607368   -0.798853   -1.205894
     85          6           0        2.170000   -0.160959   -3.139039
     86          1           0        1.672464   -0.713352   -3.942283
     87          6           0        3.704972   -0.228272   -3.297978
     88          6           0        1.713245    1.321763   -3.174239
     89          1           0        2.329437    1.895979   -2.470933
     90          1           0        1.915475    1.724706   -4.171604
     91          8           0        4.419733   -0.463157   -2.309521
     92          6           0        0.232382    1.486674   -2.815590
     93          1           0        0.045272    1.141827   -1.794904
     94          1           0       -0.389820    0.855734   -3.463678
     95          6           0       -0.342894    2.882784   -2.886537
     96          8           0       -1.385197    3.220205   -2.356023
     97          8           0        0.395567    3.739585   -3.623635
     98          7           0        4.148009    0.018908   -4.533406
     99          1           0        3.542222    0.339108   -5.307282
    100          6           0        5.522061    0.311520   -4.912081
    101          1           0        5.942459    1.047825   -4.211841
    102          6           0        5.445101    0.968774   -6.357920
    103          6           0        6.407775   -0.945674   -4.885345
    104          1           0        6.079948   -1.625856   -5.685720
    105          1           0        6.249133   -1.458228   -3.926570
    106          8           0        6.548085    1.208830   -6.896066
    107          6           0        7.887743   -0.599346   -5.084452
    108          1           0        8.227247    0.037334   -4.250350
    109          1           0        7.952928    0.021389   -5.988557
    110          6           0        8.785891   -1.824062   -5.230459
    111          1           0        9.842195   -1.562213   -5.356615
    112          1           0        8.495130   -2.411090   -6.105607
    113          7           0        8.704877   -2.766052   -4.080293
    114          1           0        7.955703   -3.446281   -4.108035
    115          7           0       10.034264   -1.493703   -2.666008
    116          1           0       10.673631   -1.453790   -1.886128
    117          1           0        9.897654   -0.657347   -3.216747
    118          7           0        9.264411   -3.559449   -1.965306
    119          1           0        9.347155   -3.310010   -0.989603
    120          1           0        8.820776   -4.444238   -2.167204
    121          6           0        9.309946   -2.594846   -2.912262
    122          8           0        4.277118    1.158327   -6.778984
    123          1           0       -0.084195    4.589482   -3.623152
 ---------------------------------------------------------------------

 SCF Done:  E(RB3LYP) =  -2973.97771186     A.U. after    1 cycles

 Alpha  occ. eigenvalues --  -19.25827 -19.23117 -19.22976 -19.20283 -19.17824
 Alpha  occ. eigenvalues --  -19.17537 -19.17256 -19.14993 -19.13471 -19.06046
 Alpha  occ. eigenvalues --  -19.05410 -14.59005 -14.49815 -14.49639 -14.49319
 Alpha  occ. eigenvalues --  -14.47994 -14.43424 -14.41849 -14.41230 -14.39306
 Alpha  occ. eigenvalues --  -14.35735 -10.45823 -10.42430 -10.39988 -10.37282
 Alpha  occ. eigenvalues --  -10.35549 -10.34990 -10.34306 -10.33466 -10.33242
 Alpha  occ. eigenvalues --  -10.32221 -10.31143 -10.30321 -10.30191 -10.30071
 Alpha  occ. eigenvalues --  -10.29517 -10.28921 -10.28618 -10.28398 -10.27889
 Alpha  occ. eigenvalues --  -10.27767 -10.27718 -10.27615 -10.26423 -10.26006
 Alpha  occ. eigenvalues --  -10.24782 -10.24306 -10.23788 -10.23678 -10.23614
 Alpha  occ. eigenvalues --  -10.23604 -10.23548 -10.23347 -10.23045 -10.22953
 Alpha  occ. eigenvalues --  -10.22908 -10.22750 -10.22198 -10.21905 -10.21895
 Alpha  occ. eigenvalues --  -10.21857 -10.21433  -1.18238  -1.14332  -1.13925
 Alpha  occ. eigenvalues --   -1.12845  -1.12111  -1.10715  -1.09943  -1.09155
 Alpha  occ. eigenvalues --   -1.06868  -1.04750  -1.04622  -1.04602  -1.03274
 Alpha  occ. eigenvalues --   -1.02671  -1.00192  -0.99296  -0.98489  -0.97666
 Alpha  occ. eigenvalues --   -0.95782  -0.95662  -0.92912  -0.91843  -0.90446
 Alpha  occ. eigenvalues --   -0.89696  -0.87427  -0.85965  -0.85495  -0.84772
 Alpha  occ. eigenvalues --   -0.83879  -0.83565  -0.83122  -0.82111  -0.79930
 Alpha  occ. eigenvalues --   -0.79192  -0.79116  -0.78930  -0.77557  -0.76624
 Alpha  occ. eigenvalues --   -0.75689  -0.75414  -0.73071  -0.72830  -0.72764
 Alpha  occ. eigenvalues --   -0.72156  -0.71936  -0.70976  -0.70630  -0.69859
 Alpha  occ. eigenvalues --   -0.69635  -0.68609  -0.68062  -0.67545  -0.67027
 Alpha  occ. eigenvalues --   -0.66626  -0.65872  -0.65243  -0.64506  -0.63994
 Alpha  occ. eigenvalues --   -0.63703  -0.63209  -0.63087  -0.63005  -0.62307
 Alpha  occ. eigenvalues --   -0.62155  -0.61454  -0.61411  -0.60264  -0.60140
 Alpha  occ. eigenvalues --   -0.58795  -0.58563  -0.58388  -0.57598  -0.56652
 Alpha  occ. eigenvalues --   -0.56257  -0.55966  -0.55662  -0.55320  -0.54951
 Alpha  occ. eigenvalues --   -0.54726  -0.54010  -0.53539  -0.53176  -0.52837
 Alpha  occ. eigenvalues --   -0.52383  -0.52091  -0.51851  -0.51550  -0.51472
 Alpha  occ. eigenvalues --   -0.51341  -0.51149  -0.51080  -0.50809  -0.50697
 Alpha  occ. eigenvalues --   -0.50447  -0.50225  -0.49750  -0.49607  -0.49203
 Alpha  occ. eigenvalues --   -0.48972  -0.48616  -0.48492  -0.48234  -0.47892
 Alpha  occ. eigenvalues --   -0.47722  -0.47284  -0.47201  -0.46790  -0.46606
 Alpha  occ. eigenvalues --   -0.46506  -0.46115  -0.45748  -0.45402  -0.45192
 Alpha  occ. eigenvalues --   -0.45103  -0.44853  -0.44414  -0.44280  -0.44135
 Alpha  occ. eigenvalues --   -0.43780  -0.43721  -0.43701  -0.43497  -0.43302
 Alpha  occ. eigenvalues --   -0.43070  -0.42871  -0.42706  -0.42123  -0.41909
 Alpha  occ. eigenvalues --   -0.41652  -0.41561  -0.41030  -0.40770  -0.40632
 Alpha  occ. eigenvalues --   -0.40443  -0.40109  -0.39485  -0.39247  -0.38950
 Alpha  occ. eigenvalues --   -0.38596  -0.38092  -0.38041  -0.37993  -0.37865
 Alpha  occ. eigenvalues --   -0.37299  -0.37194  -0.37133  -0.37058  -0.36820
 Alpha  occ. eigenvalues --   -0.36643  -0.35441  -0.34798  -0.34563  -0.34092
 Alpha  occ. eigenvalues --   -0.33910  -0.33642  -0.33572  -0.32656  -0.31847
 Alpha  occ. eigenvalues --   -0.31362  -0.30918  -0.30713  -0.29374  -0.29300
 Alpha  occ. eigenvalues --   -0.28349  -0.27375  -0.26550  -0.26293  -0.21345
 Alpha  occ. eigenvalues --   -0.20935  -0.19691
 Alpha virt. eigenvalues --   -0.11526  -0.10350  -0.10247  -0.10115  -0.09237
 Alpha virt. eigenvalues --   -0.06036  -0.05934  -0.05244  -0.04949  -0.04405
 Alpha virt. eigenvalues --   -0.03350  -0.02622  -0.02342  -0.02075  -0.02005

 Mulliken charges:
               1
     1  N   -0.761896
     2  H    0.414977
     3  H    0.410270
     4  H    0.434784
     5  C   -0.105833
     6  H    0.218048
     7  C    0.655668
     8  C   -0.382450
     9  H    0.185215
    10  H    0.179349
    11  O   -0.553415
    12  C    0.145359
    13  C   -0.177803
    14  H    0.139587
    15  C   -0.187513
    16  H    0.127995
    17  C   -0.113068
    18  H    0.155594
    19  C   -0.118508
    20  H    0.158204
    21  C   -0.111693
    22  H    0.159635
    23  N   -0.607865
    24  H    0.389962
    25  C   -0.053829
    26  H    0.191386
    27  C    0.623368
    28  C   -0.468210
    29  H    0.183258
    30  H    0.188850
    31  H    0.178441
    32  O   -0.542356
    33  N   -0.609584
    34  H    0.364190
    35  C   -0.059292
    36  H    0.188287
    37  C    0.636066
    38  C   -0.443984
    39  H    0.167454
    40  H    0.165845
    41  H    0.168787
    42  O   -0.546110
    43  N   -0.601782
    44  H    0.355101
    45  C   -0.071207
    46  H    0.182607
    47  C    0.633599
    48  C   -0.393542
    49  H    0.190730
    50  H    0.171842
    51  O   -0.536425
    52  C    0.179175
    53  C   -0.212843
    54  H    0.172150
    55  C   -0.162115
    56  H    0.127135
    57  C   -0.171986
    58  H    0.133606
    59  C   -0.195247
    60  H    0.120798
    61  O   -0.659503
    62  H    0.407668
    63  C    0.349894
    64  N   -0.583646
    65  H    0.337997
    66  C   -0.076345
    67  H    0.175183
    68  C    0.629766
    69  C   -0.279243
    70  H    0.149606
    71  H    0.142640
    72  O   -0.558469
    73  C   -0.065848
    74  H    0.134264
    75  C   -0.442890
    76  H    0.136862
    77  H    0.147019
    78  H    0.144974
    79  C   -0.452696
    80  H    0.134188
    81  H    0.155184
    82  H    0.147676
    83  N   -0.601895
    84  H    0.344879
    85  C   -0.064535
    86  H    0.181797
    87  C    0.611039
    88  C   -0.266264
    89  H    0.152445
    90  H    0.190081
    91  O   -0.588342
    92  C   -0.381313
    93  H    0.192770
    94  H    0.203681
    95  C    0.580415
    96  O   -0.483294
    97  O   -0.546998
    98  N   -0.619884
    99  H    0.361412
   100  C   -0.052081
   101  H    0.135925
   102  C    0.581760
   103  C   -0.265508
   104  H    0.135207
   105  H    0.122267
   106  O   -0.590490
   107  C   -0.296114
   108  H    0.111016
   109  H    0.248203
   110  C   -0.198185
   111  H    0.177265
   112  H    0.197050
   113  N   -0.568845
   114  H    0.366289
   115  N   -0.751314
   116  H    0.378593
   117  H    0.399891
   118  N   -0.759178
   119  H    0.377413
   120  H    0.376679
   121  C    0.810720
   122  O   -0.594801
   123  H    0.409198
 Sum of Mulliken charges =   1.00000

 Dipole moment (field-independent basis, Debye):
    X=            -19.5727    Y=             12.3488    Z=             20.8261  Tot=             31.1338
 Quadrupole moment (field-independent basis, Debye-Ang):
   XX=            289.2746   YY=           -119.7216   ZZ=           -409.4147
   XY=           -372.8338   XZ=           -107.9498   YZ=            136.3098

 Normal termination of Gaussian 16 at Mon Jul 18 02:03:30 2022.
