 Gaussian 16, Revision C.01,
 Gaussian 16:  ES64L-G16RevC.01  3-Jul-2019

 -------------------------------------------------------------------
 # B3LYP/6-31G* guess=read geom=check nosymm integral(ultrafinegrid)
 -------------------------------------------------------------------

 ------------------------------------------------------
 Candidate Structure: Conf:962 Charge calc in gas phase
 ------------------------------------------------------
 Structure from the checkpoint file:  "conf-962.chk"
 Charge =  1 Multiplicity = 1

                          Input orientation:
 ---------------------------------------------------------------------
 Center     Atomic      Atomic             Coordinates (Angstroms)
 Number     Number       Type             X           Y           Z
 ---------------------------------------------------------------------
      1          7           0       -8.977332    4.646538    8.190400
      2          1           0       -9.778261    4.771483    8.813909
      3          1           0       -8.206971    5.232907    8.525270
      4          1           0       -8.665837    3.620791    8.168222
      5          6           0       -9.294082    4.892671    6.724792
      6          1           0      -10.369526    5.071052    6.648476
      7          6           0       -8.918079    3.526302    6.080926
      8          6           0       -8.498592    6.103751    6.182658
      9          1           0       -7.446892    5.815635    6.083285
     10          1           0       -8.565032    6.906843    6.929793
     11          8           0       -8.506596    2.635613    6.837933
     12          6           0       -9.026878    6.623474    4.856197
     13          6           0       -8.285026    6.457735    3.676849
     14          1           0       -7.333608    5.933832    3.712597
     15          6           0      -10.255476    7.299126    4.801013
     16          1           0      -10.831714    7.458894    5.711013
     17          6           0       -8.770655    6.958659    2.465340
     18          1           0       -8.183483    6.835083    1.559904
     19          6           0      -10.738288    7.795245    3.590961
     20          1           0      -11.687370    8.322378    3.563543
     21          6           0       -9.995541    7.625195    2.419641
     22          1           0      -10.368308    8.017502    1.478158
     23          7           0       -9.083517    3.394588    4.762245
     24          1           0       -9.263758    4.246340    4.237898
     25          6           0       -8.365207    2.343690    4.038331
     26          1           0       -8.522738    1.406968    4.580630
     27          6           0       -6.844201    2.687481    4.078142
     28          6           0       -8.916174    2.228595    2.612695
     29          1           0       -8.407983    1.432575    2.062617
     30          1           0       -8.770003    3.162554    2.057701
     31          1           0       -9.985281    1.997533    2.633752
     32          8           0       -6.442152    3.748561    4.564681
     33          7           0       -6.046088    1.748345    3.550798
     34          1           0       -6.405520    0.903079    3.108849
     35          6           0       -4.602857    1.887711    3.401686
     36          1           0       -4.384002    2.898729    3.038846
     37          6           0       -4.206765    0.851644    2.325821
     38          6           0       -3.856866    1.654333    4.726630
     39          1           0       -2.777178    1.778351    4.594906
     40          1           0       -4.046260    0.643129    5.100991
     41          1           0       -4.199514    2.379018    5.469839
     42          8           0       -5.012701   -0.013173    1.966412
     43          7           0       -2.959593    0.969730    1.844045
     44          1           0       -2.295492    1.642291    2.223050
     45          6           0       -2.347341    0.018072    0.930347
     46          1           0       -2.568498   -0.997815    1.283080
     47          6           0       -0.826168    0.263419    1.050539
     48          6           0       -2.895153    0.130920   -0.522130
     49          1           0       -2.466997   -0.688882   -1.111689
     50          1           0       -3.969697   -0.067955   -0.456921
     51          8           0       -0.387450    1.150953    1.786157
     52          6           0       -2.638820    1.453089   -1.209903
     53          6           0       -3.509170    2.539726   -1.033069
     54          1           0       -4.394625    2.416524   -0.414217
     55          6           0       -1.529518    1.634453   -2.045667
     56          1           0       -0.848674    0.805234   -2.222598
     57          6           0       -3.278231    3.766565   -1.646672
     58          1           0       -3.957181    4.603123   -1.513520
     59          6           0       -1.284815    2.857705   -2.669576
     60          1           0       -0.419574    2.974080   -3.319872
     61          8           0       -1.978067    5.155521   -3.047560
     62          1           0       -1.180373    5.133077   -3.598892
     63          6           0       -2.157171    3.931414   -2.467487
     64          7           0       -0.042892   -0.560515    0.328075
     65          1           0       -0.429090   -1.200250   -0.359838
     66          6           0        1.404325   -0.408329    0.240733
     67          1           0        1.638245    0.648855    0.397326
     68          6           0        1.775332   -0.832498   -1.194062
     69          6           0        2.101587   -1.264907    1.330609
     70          1           0        1.586747   -1.033132    2.271905
     71          1           0        1.896563   -2.321067    1.110298
     72          8           0        0.994507   -1.512106   -1.869140
     73          6           0        3.616441   -1.063956    1.540813
     74          1           0        4.140352   -1.286150    0.601411
     75          6           0        3.967443    0.373385    1.958373
     76          1           0        3.440160    0.652767    2.879267
     77          1           0        5.042914    0.470291    2.143264
     78          1           0        3.705102    1.114672    1.194222
     79          6           0        4.119735   -2.065085    2.593105
     80          1           0        3.635642   -1.892862    3.563009
     81          1           0        3.911723   -3.099387    2.294841
     82          1           0        5.201408   -1.968238    2.740377
     83          7           0        2.977860   -0.425289   -1.645507
     84          1           0        3.616112    0.118925   -1.072452
     85          6           0        3.532570   -0.834301   -2.929033
     86          1           0        3.263657   -1.877589   -3.111846
     87          6           0        5.060071   -0.696371   -2.789471
     88          6           0        2.943813    0.047446   -4.064567
     89          1           0        1.855756   -0.054070   -3.992916
     90          1           0        3.189161    1.093670   -3.847403
     91          8           0        5.543686    0.023463   -1.907656
     92          6           0        3.389873   -0.254609   -5.513821
     93          1           0        4.458720   -0.055931   -5.648155
     94          1           0        2.839160    0.399535   -6.194345
     95          6           0        3.174055   -1.693621   -5.919899
     96          8           0        3.751467   -2.649107   -5.425313
     97          8           0        2.263078   -1.841589   -6.897006
     98          7           0        5.790568   -1.395781   -3.683114
     99          1           0        5.299776   -1.928245   -4.403669
    100          6           0        7.218725   -1.185000   -3.842345
    101          1           0        7.485858   -0.386910   -3.149660
    102          6           0        7.519650   -0.700147   -5.276330
    103          6           0        8.026669   -2.462664   -3.510822
    104          1           0        9.034015   -2.366923   -3.929232
    105          1           0        7.560468   -3.304565   -4.037396
    106          8           0        8.707485   -0.132125   -5.464730
    107          6           0        8.109092   -2.789975   -2.010387
    108          1           0        8.576970   -3.777412   -1.896420
    109          1           0        7.096497   -2.877531   -1.595515
    110          6           0        8.883631   -1.770815   -1.150316
    111          1           0        8.898620   -2.111426   -0.109985
    112          1           0        8.364134   -0.808272   -1.139855
    113          7           0       10.273419   -1.563853   -1.557729
    114          1           0       10.939469   -2.269744   -1.272022
    115          7           0       10.002038    0.260736   -3.074236
    116          1           0        9.211336    0.048736   -4.605366
    117          1           0        9.321391    0.592880   -2.392022
    118          7           0       11.800355   -1.178705   -3.259841
    119          1           0       12.060313   -0.589292   -4.040625
    120          1           0       11.954438   -2.167676   -3.410198
    121          6           0       10.634400   -0.789729   -2.635172
    122          8           0        6.727042   -0.859665   -6.184021
    123          1           0        2.212013   -2.797576   -7.092336
 ---------------------------------------------------------------------

 SCF Done:  E(RB3LYP) =  -2974.03723305     A.U. after    1 cycles

 Alpha  occ. eigenvalues --  -19.26850 -19.24923 -19.22586 -19.20944 -19.20174
 Alpha  occ. eigenvalues --  -19.19396 -19.19110 -19.17811 -19.17368 -19.17073
 Alpha  occ. eigenvalues --  -19.15969 -14.59494 -14.48880 -14.44408 -14.42526
 Alpha  occ. eigenvalues --  -14.41496 -14.41351 -14.41236 -14.40414 -14.40345
 Alpha  occ. eigenvalues --  -14.34587 -10.43314 -10.40575 -10.38047 -10.37473
 Alpha  occ. eigenvalues --  -10.36053 -10.34872 -10.34745 -10.34488 -10.34415
 Alpha  occ. eigenvalues --  -10.34236 -10.34018 -10.33547 -10.31357 -10.31055
 Alpha  occ. eigenvalues --  -10.29834 -10.29741 -10.29664 -10.29055 -10.29036
 Alpha  occ. eigenvalues --  -10.28889 -10.28787 -10.28785 -10.28627 -10.28598
 Alpha  occ. eigenvalues --  -10.27905 -10.27760 -10.25580 -10.25108 -10.24938
 Alpha  occ. eigenvalues --  -10.24685 -10.24296 -10.24173 -10.24031 -10.23981
 Alpha  occ. eigenvalues --  -10.23914 -10.23903 -10.23758 -10.23754 -10.23376
 Alpha  occ. eigenvalues --  -10.22016 -10.21970  -1.19294  -1.15892  -1.13497
 Alpha  occ. eigenvalues --   -1.12562  -1.11612  -1.10933  -1.10617  -1.09840
 Alpha  occ. eigenvalues --   -1.09180  -1.08445  -1.06650  -1.05788  -1.03915
 Alpha  occ. eigenvalues --   -1.03461  -1.01031  -0.99309  -0.98282  -0.97836
 Alpha  occ. eigenvalues --   -0.97266  -0.96576  -0.94699  -0.92580  -0.90198
 Alpha  occ. eigenvalues --   -0.89959  -0.88423  -0.86586  -0.85696  -0.85398
 Alpha  occ. eigenvalues --   -0.84842  -0.84558  -0.84280  -0.83045  -0.80758
 Alpha  occ. eigenvalues --   -0.79591  -0.79573  -0.79403  -0.78088  -0.76834
 Alpha  occ. eigenvalues --   -0.75880  -0.74060  -0.73701  -0.72906  -0.72856
 Alpha  occ. eigenvalues --   -0.72665  -0.72063  -0.71299  -0.70790  -0.70640
 Alpha  occ. eigenvalues --   -0.69677  -0.68164  -0.67265  -0.66800  -0.66148
 Alpha  occ. eigenvalues --   -0.65743  -0.65317  -0.65027  -0.64740  -0.64098
 Alpha  occ. eigenvalues --   -0.63398  -0.63145  -0.62903  -0.62692  -0.62589
 Alpha  occ. eigenvalues --   -0.62105  -0.61418  -0.61106  -0.61102  -0.60008
 Alpha  occ. eigenvalues --   -0.59178  -0.58783  -0.58512  -0.57841  -0.57140
 Alpha  occ. eigenvalues --   -0.56133  -0.55944  -0.55830  -0.55654  -0.55048
 Alpha  occ. eigenvalues --   -0.54671  -0.54481  -0.53890  -0.53652  -0.53597
 Alpha  occ. eigenvalues --   -0.53216  -0.52970  -0.52627  -0.52407  -0.52347
 Alpha  occ. eigenvalues --   -0.52241  -0.51683  -0.51574  -0.51473  -0.51379
 Alpha  occ. eigenvalues --   -0.51011  -0.50770  -0.50495  -0.50346  -0.50007
 Alpha  occ. eigenvalues --   -0.49850  -0.49395  -0.48939  -0.48855  -0.48743
 Alpha  occ. eigenvalues --   -0.48377  -0.48314  -0.48088  -0.47894  -0.47529
 Alpha  occ. eigenvalues --   -0.47495  -0.47227  -0.47015  -0.46778  -0.46701
 Alpha  occ. eigenvalues --   -0.46356  -0.45986  -0.45630  -0.45422  -0.45227
 Alpha  occ. eigenvalues --   -0.45056  -0.44994  -0.44700  -0.44599  -0.44575
 Alpha  occ. eigenvalues --   -0.44132  -0.44049  -0.43952  -0.43468  -0.43272
 Alpha  occ. eigenvalues --   -0.43036  -0.42808  -0.42470  -0.42146  -0.42020
 Alpha  occ. eigenvalues --   -0.41756  -0.41488  -0.41480  -0.40943  -0.40753
 Alpha  occ. eigenvalues --   -0.40333  -0.40200  -0.39620  -0.39327  -0.38889
 Alpha  occ. eigenvalues --   -0.38578  -0.38478  -0.38098  -0.37555  -0.37395
 Alpha  occ. eigenvalues --   -0.37274  -0.36871  -0.35332  -0.35095  -0.34788
 Alpha  occ. eigenvalues --   -0.34466  -0.33362  -0.33197  -0.33079  -0.32984
 Alpha  occ. eigenvalues --   -0.32640  -0.32168  -0.31704  -0.31554  -0.31493
 Alpha  occ. eigenvalues --   -0.30907  -0.30562  -0.30108  -0.29932  -0.29153
 Alpha  occ. eigenvalues --   -0.28453  -0.26550
 Alpha virt. eigenvalues --   -0.12719  -0.11142  -0.10618  -0.10152  -0.06957
 Alpha virt. eigenvalues --   -0.05843  -0.05235  -0.04884  -0.04585  -0.03888
 Alpha virt. eigenvalues --   -0.03686  -0.03370  -0.03120  -0.02365  -0.02063

 Mulliken charges:
               1
     1  N   -0.764779
     2  H    0.413799
     3  H    0.415053
     4  H    0.438607
     5  C   -0.113470
     6  H    0.222682
     7  C    0.661572
     8  C   -0.384695
     9  H    0.220081
    10  H    0.176606
    11  O   -0.536521
    12  C    0.115939
    13  C   -0.215666
    14  H    0.188823
    15  C   -0.176862
    16  H    0.128708
    17  C   -0.129343
    18  H    0.161773
    19  C   -0.124804
    20  H    0.160930
    21  C   -0.121722
    22  H    0.163837
    23  N   -0.573601
    24  H    0.364521
    25  C   -0.087979
    26  H    0.207321
    27  C    0.644126
    28  C   -0.476914
    29  H    0.191246
    30  H    0.167464
    31  H    0.183486
    32  O   -0.557452
    33  N   -0.612533
    34  H    0.365032
    35  C   -0.044360
    36  H    0.181880
    37  C    0.621924
    38  C   -0.451016
    39  H    0.169899
    40  H    0.165736
    41  H    0.175957
    42  O   -0.550385
    43  N   -0.618920
    44  H    0.365274
    45  C   -0.036308
    46  H    0.183108
    47  C    0.627261
    48  C   -0.387778
    49  H    0.158296
    50  H    0.185509
    51  O   -0.548039
    52  C    0.172884
    53  C   -0.186707
    54  H    0.118728
    55  C   -0.200739
    56  H    0.146123
    57  C   -0.156075
    58  H    0.133435
    59  C   -0.192455
    60  H    0.123456
    61  O   -0.640650
    62  H    0.411066
    63  C    0.353065
    64  N   -0.622753
    65  H    0.358991
    66  C   -0.067178
    67  H    0.184760
    68  C    0.627780
    69  C   -0.248692
    70  H    0.156851
    71  H    0.142856
    72  O   -0.555642
    73  C   -0.092872
    74  H    0.134707
    75  C   -0.449049
    76  H    0.150775
    77  H    0.152455
    78  H    0.141076
    79  C   -0.444403
    80  H    0.144136
    81  H    0.144747
    82  H    0.145394
    83  N   -0.623743
    84  H    0.367576
    85  C   -0.054520
    86  H    0.199518
    87  C    0.600088
    88  C   -0.278452
    89  H    0.180157
    90  H    0.158361
    91  O   -0.559917
    92  C   -0.385789
    93  H    0.223298
    94  H    0.177940
    95  C    0.613095
    96  O   -0.481782
    97  O   -0.549087
    98  N   -0.615111
    99  H    0.391259
   100  C   -0.093311
   101  H    0.174264
   102  C    0.602627
   103  C   -0.271710
   104  H    0.147442
   105  H    0.162545
   106  O   -0.603664
   107  C   -0.258266
   108  H    0.137574
   109  H    0.157382
   110  C   -0.168854
   111  H    0.161591
   112  H    0.180224
   113  N   -0.581558
   114  H    0.327365
   115  N   -0.733019
   116  H    0.462543
   117  H    0.302279
   118  N   -0.741326
   119  H    0.356150
   120  H    0.329968
   121  C    0.645533
   122  O   -0.475107
   123  H    0.417063
 Sum of Mulliken charges =   1.00000

 Dipole moment (field-independent basis, Debye):
    X=            -28.8765    Y=             15.5994    Z=             25.8860  Tot=             41.8004
 Quadrupole moment (field-independent basis, Debye-Ang):
   XX=             81.8292   YY=           -240.4347   ZZ=           -164.2647
   XY=           -241.5189   XZ=           -243.7802   YZ=            141.8729

 Normal termination of Gaussian 16 at Mon Jul 18 02:03:29 2022.
