 Gaussian 16, Revision C.01,
 Gaussian 16:  ES64L-G16RevC.01  3-Jul-2019

 -------------------------------------------------------------------
 # B3LYP/6-31G* guess=read geom=check nosymm integral(ultrafinegrid)
 -------------------------------------------------------------------

 ------------------------------------------------------
 Candidate Structure: Conf:364 Charge calc in gas phase
 ------------------------------------------------------
 Structure from the checkpoint file:  "conf-364.chk"
 Charge =  1 Multiplicity = 1

                          Input orientation:
 ---------------------------------------------------------------------
 Center     Atomic      Atomic             Coordinates (Angstroms)
 Number     Number       Type             X           Y           Z
 ---------------------------------------------------------------------
      1          7           0       -3.590993    5.132867    5.835518
      2          1           0       -3.167174    5.882102    6.387167
      3          1           0       -3.872129    4.377844    6.468540
      4          1           0       -4.449051    5.481059    5.298490
      5          6           0       -2.711526    4.626301    4.703366
      6          1           0       -1.862585    5.310085    4.622665
      7          6           0       -3.651859    4.786449    3.472800
      8          6           0       -2.220889    3.186064    4.983769
      9          1           0       -3.069405    2.500938    4.882273
     10          1           0       -1.874156    3.151619    6.025929
     11          8           0       -4.756427    5.315535    3.665426
     12          6           0       -1.088232    2.765837    4.064156
     13          6           0       -1.310873    1.852086    3.023107
     14          1           0       -2.296722    1.415983    2.883036
     15          6           0        0.195771    3.306091    4.233625
     16          1           0        0.392296    3.997549    5.052021
     17          6           0       -0.272640    1.508690    2.152106
     18          1           0       -0.484321    0.821022    1.339472
     19          6           0        1.231638    2.952279    3.370062
     20          1           0        2.221518    3.375649    3.514734
     21          6           0        1.000207    2.058350    2.319866
     22          1           0        1.800087    1.793104    1.633824
     23          7           0       -3.204639    4.367051    2.285815
     24          1           0       -2.351443    3.812529    2.284576
     25          6           0       -4.154874    4.069066    1.214731
     26          1           0       -4.788871    4.950284    1.076511
     27          6           0       -5.040753    2.874673    1.682523
     28          6           0       -3.390703    3.742821   -0.077144
     29          1           0       -4.076519    3.665881   -0.925489
     30          1           0       -2.855795    2.790100    0.005670
     31          1           0       -2.664903    4.528364   -0.305672
     32          8           0       -4.807468    2.278415    2.733298
     33          7           0       -6.037250    2.534691    0.833543
     34          1           0       -6.147823    3.058347   -0.025757
     35          6           0       -6.907642    1.367439    1.014268
     36          1           0       -6.793965    1.078110    2.064243
     37          6           0       -6.447695    0.156003    0.158770
     38          6           0       -8.365763    1.720885    0.724174
     39          1           0       -8.982000    0.825201    0.817098
     40          1           0       -8.486677    2.095207   -0.299403
     41          1           0       -8.721057    2.484264    1.422344
     42          8           0       -7.253582   -0.677898   -0.242152
     43          7           0       -5.116796    0.091378   -0.088274
     44          1           0       -4.458511    0.698650    0.384774
     45          6           0       -4.504465   -1.021131   -0.788165
     46          1           0       -4.922039   -1.961199   -0.407482
     47          6           0       -3.000971   -0.950793   -0.471401
     48          6           0       -4.776344   -0.953526   -2.327612
     49          1           0       -5.795534   -0.570286   -2.432738
     50          1           0       -4.097674   -0.221465   -2.778679
     51          8           0       -2.518314    0.007952    0.146097
     52          6           0       -4.673345   -2.286440   -3.038682
     53          6           0       -3.601973   -2.591658   -3.894356
     54          1           0       -2.809620   -1.861228   -4.040118
     55          6           0       -5.675912   -3.252118   -2.861973
     56          1           0       -6.521454   -3.029591   -2.214408
     57          6           0       -3.530385   -3.820126   -4.549974
     58          1           0       -2.707905   -4.053041   -5.219067
     59          6           0       -5.614333   -4.482717   -3.511502
     60          1           0       -6.405244   -5.216423   -3.366032
     61          8           0       -4.419255   -5.955764   -5.028012
     62          1           0       -5.189823   -6.511991   -4.833615
     63          6           0       -4.538838   -4.770794   -4.361233
     64          7           0       -2.255114   -1.984504   -0.918246
     65          1           0       -2.693627   -2.624257   -1.572979
     66          6           0       -0.796133   -1.916335   -0.941770
     67          1           0       -0.454637   -1.736794    0.082261
     68          6           0       -0.353736   -0.746496   -1.851734
     69          6           0       -0.253664   -3.263125   -1.461288
     70          1           0       -0.722663   -4.061257   -0.869084
     71          1           0       -0.603886   -3.384696   -2.494865
     72          8           0       -0.910857   -0.520242   -2.924492
     73          6           0        1.276818   -3.443387   -1.420113
     74          1           0        1.738011   -2.608428   -1.966091
     75          6           0        1.832539   -3.443400    0.012798
     76          1           0        1.380136   -4.247425    0.607592
     77          1           0        2.916209   -3.604453    0.007092
     78          1           0        1.651022   -2.498586    0.538299
     79          6           0        1.660601   -4.742826   -2.144922
     80          1           0        1.222145   -5.616464   -1.645863
     81          1           0        1.310709   -4.740731   -3.183583
     82          1           0        2.747812   -4.878592   -2.156379
     83          7           0        0.693907   -0.020796   -1.395079
     84          1           0        1.128770   -0.204821   -0.497102
     85          6           0        1.267579    1.099307   -2.123001
     86          1           0        1.383806    0.810783   -3.174375
     87          6           0        2.638358    1.364252   -1.471846
     88          6           0        0.344348    2.346350   -2.045617
     89          1           0       -0.669215    1.992171   -2.256880
     90          1           0        0.356969    2.736681   -1.022550
     91          8           0        2.837347    1.049743   -0.291214
     92          6           0        0.712082    3.453475   -3.050589
     93          1           0        0.691892    3.069294   -4.074643
     94          1           0        1.720575    3.841280   -2.859142
     95          6           0       -0.230419    4.635810   -3.019516
     96          8           0       -0.818347    5.103252   -3.966605
     97          8           0       -0.345838    5.174605   -1.768523
     98          7           0        3.553077    1.961510   -2.254129
     99          1           0        3.324904    2.252522   -3.200500
    100          6           0        4.823428    2.512265   -1.786548
    101          1           0        4.768204    2.643569   -0.705102
    102          6           0        5.033594    3.887471   -2.462730
    103          6           0        5.984990    1.539056   -2.140411
    104          1           0        5.806444    1.161364   -3.157085
    105          1           0        5.892754    0.668430   -1.482331
    106          8           0        4.612800    3.944395   -3.682413
    107          6           0        7.411927    2.136550   -2.037979
    108          1           0        8.069194    1.434842   -1.510395
    109          1           0        7.389343    3.063650   -1.456426
    110          6           0        8.081548    2.409664   -3.399641
    111          1           0        8.178745    1.476195   -3.965659
    112          1           0        9.095882    2.786016   -3.238447
    113          7           0        7.342785    3.358467   -4.247099
    114          1           0        6.340069    3.167738   -4.338255
    115          7           0        8.862419    5.142830   -4.304977
    116          1           0        9.027832    6.126999   -4.161502
    117          1           0        9.647211    4.520467   -4.196863
    118          7           0        6.590702    5.476544   -4.707120
    119          1           0        6.763888    6.460950   -4.850149
    120          1           0        5.646175    5.157043   -4.379292
    121          6           0        7.601418    4.667990   -4.389750
    122          8           0        5.665972    4.754325   -1.847645
    123          1           0       -0.909959    5.962557   -1.884979
 ---------------------------------------------------------------------

 SCF Done:  E(RB3LYP) =  -2974.03743232     A.U. after    2 cycles

 Alpha  occ. eigenvalues --  -19.26115 -19.25495 -19.22459 -19.21288 -19.19523
 Alpha  occ. eigenvalues --  -19.19507 -19.17902 -19.17657 -19.17319 -19.14868
 Alpha  occ. eigenvalues --  -19.13547 -14.58781 -14.48071 -14.46443 -14.45570
 Alpha  occ. eigenvalues --  -14.44492 -14.43189 -14.42597 -14.41910 -14.41842
 Alpha  occ. eigenvalues --  -14.41757 -10.42603 -10.41364 -10.39709 -10.38378
 Alpha  occ. eigenvalues --  -10.37746 -10.35933 -10.34989 -10.34951 -10.34470
 Alpha  occ. eigenvalues --  -10.34099 -10.32486 -10.31833 -10.30890 -10.30793
 Alpha  occ. eigenvalues --  -10.29785 -10.29768 -10.29727 -10.29665 -10.29476
 Alpha  occ. eigenvalues --  -10.28026 -10.27907 -10.27307 -10.27235 -10.27205
 Alpha  occ. eigenvalues --  -10.26587 -10.26332 -10.25768 -10.25562 -10.25240
 Alpha  occ. eigenvalues --  -10.24978 -10.24879 -10.24796 -10.24732 -10.24696
 Alpha  occ. eigenvalues --  -10.24055 -10.23900 -10.23801 -10.23585 -10.23195
 Alpha  occ. eigenvalues --  -10.22945 -10.22456  -1.18556  -1.16080  -1.13259
 Alpha  occ. eigenvalues --   -1.12490  -1.11140  -1.10532  -1.10046  -1.09831
 Alpha  occ. eigenvalues --   -1.09452  -1.08823  -1.07294  -1.07006  -1.05131
 Alpha  occ. eigenvalues --   -1.01837  -0.99685  -0.99342  -0.98993  -0.98401
 Alpha  occ. eigenvalues --   -0.98321  -0.97906  -0.97298  -0.95078  -0.91354
 Alpha  occ. eigenvalues --   -0.90178  -0.87841  -0.87368  -0.86341  -0.85571
 Alpha  occ. eigenvalues --   -0.84770  -0.83903  -0.83081  -0.82741  -0.81476
 Alpha  occ. eigenvalues --   -0.80601  -0.79448  -0.78644  -0.78340  -0.77670
 Alpha  occ. eigenvalues --   -0.75204  -0.74012  -0.73635  -0.73384  -0.72837
 Alpha  occ. eigenvalues --   -0.72051  -0.72018  -0.71659  -0.70955  -0.70242
 Alpha  occ. eigenvalues --   -0.68968  -0.68864  -0.68262  -0.66994  -0.66915
 Alpha  occ. eigenvalues --   -0.66844  -0.66553  -0.66076  -0.65685  -0.64874
 Alpha  occ. eigenvalues --   -0.64405  -0.64294  -0.63721  -0.63272  -0.63027
 Alpha  occ. eigenvalues --   -0.62505  -0.61640  -0.61422  -0.60516  -0.59406
 Alpha  occ. eigenvalues --   -0.59236  -0.58934  -0.58896  -0.58263  -0.57627
 Alpha  occ. eigenvalues --   -0.57041  -0.56668  -0.55859  -0.55404  -0.55095
 Alpha  occ. eigenvalues --   -0.54960  -0.54740  -0.54541  -0.54124  -0.54091
 Alpha  occ. eigenvalues --   -0.53746  -0.53429  -0.53178  -0.52862  -0.52510
 Alpha  occ. eigenvalues --   -0.52425  -0.52168  -0.51778  -0.51467  -0.51342
 Alpha  occ. eigenvalues --   -0.50914  -0.50686  -0.50296  -0.50094  -0.49864
 Alpha  occ. eigenvalues --   -0.49831  -0.49546  -0.49460  -0.49301  -0.49031
 Alpha  occ. eigenvalues --   -0.48741  -0.48606  -0.48413  -0.48260  -0.48127
 Alpha  occ. eigenvalues --   -0.47493  -0.47220  -0.47043  -0.46939  -0.46737
 Alpha  occ. eigenvalues --   -0.46686  -0.46405  -0.46057  -0.45936  -0.45591
 Alpha  occ. eigenvalues --   -0.45484  -0.44869  -0.44789  -0.44746  -0.44333
 Alpha  occ. eigenvalues --   -0.44164  -0.44090  -0.43846  -0.43623  -0.43324
 Alpha  occ. eigenvalues --   -0.42782  -0.42619  -0.42538  -0.42326  -0.42267
 Alpha  occ. eigenvalues --   -0.42215  -0.41755  -0.41429  -0.41260  -0.40875
 Alpha  occ. eigenvalues --   -0.40828  -0.40722  -0.40465  -0.40018  -0.39484
 Alpha  occ. eigenvalues --   -0.38768  -0.38632  -0.38258  -0.38141  -0.38081
 Alpha  occ. eigenvalues --   -0.37519  -0.37443  -0.36679  -0.36155  -0.34987
 Alpha  occ. eigenvalues --   -0.33983  -0.33717  -0.33471  -0.33435  -0.33228
 Alpha  occ. eigenvalues --   -0.33076  -0.32452  -0.32146  -0.31711  -0.30893
 Alpha  occ. eigenvalues --   -0.30663  -0.30506  -0.30102  -0.29924  -0.29534
 Alpha  occ. eigenvalues --   -0.26921  -0.26541
 Alpha virt. eigenvalues --   -0.11951  -0.09970  -0.09335  -0.08682  -0.07139
 Alpha virt. eigenvalues --   -0.05995  -0.05934  -0.05245  -0.05033  -0.04854
 Alpha virt. eigenvalues --   -0.04055  -0.03858  -0.03632  -0.02967  -0.02768

 Mulliken charges:
               1
     1  N   -0.763739
     2  H    0.412011
     3  H    0.415094
     4  H    0.436848
     5  C   -0.112848
     6  H    0.224087
     7  C    0.662270
     8  C   -0.385114
     9  H    0.215535
    10  H    0.172735
    11  O   -0.540882
    12  C    0.123970
    13  C   -0.241037
    14  H    0.181712
    15  C   -0.178554
    16  H    0.121109
    17  C   -0.150797
    18  H    0.182580
    19  C   -0.130557
    20  H    0.155521
    21  C   -0.145719
    22  H    0.205752
    23  N   -0.581691
    24  H    0.374645
    25  C   -0.082545
    26  H    0.199366
    27  C    0.635712
    28  C   -0.502989
    29  H    0.171971
    30  H    0.205028
    31  H    0.181882
    32  O   -0.542764
    33  N   -0.599337
    34  H    0.340348
    35  C   -0.072226
    36  H    0.206933
    37  C    0.620690
    38  C   -0.452600
    39  H    0.199949
    40  H    0.152334
    41  H    0.156854
    42  O   -0.522669
    43  N   -0.641100
    44  H    0.366945
    45  C   -0.036575
    46  H    0.187190
    47  C    0.625532
    48  C   -0.358031
    49  H    0.184726
    50  H    0.167736
    51  O   -0.562671
    52  C    0.112255
    53  C   -0.230875
    54  H    0.180012
    55  C   -0.191171
    56  H    0.159892
    57  C   -0.163965
    58  H    0.147808
    59  C   -0.193085
    60  H    0.129929
    61  O   -0.636609
    62  H    0.411962
    63  C    0.354091
    64  N   -0.611092
    65  H    0.360591
    66  C   -0.039073
    67  H    0.160370
    68  C    0.645624
    69  C   -0.298454
    70  H    0.151574
    71  H    0.161989
    72  O   -0.545968
    73  C   -0.083700
    74  H    0.136211
    75  C   -0.449637
    76  H    0.147321
    77  H    0.154384
    78  H    0.136958
    79  C   -0.444817
    80  H    0.146730
    81  H    0.150271
    82  H    0.148859
    83  N   -0.629851
    84  H    0.358002
    85  C   -0.028165
    86  H    0.171892
    87  C    0.606796
    88  C   -0.282711
    89  H    0.184845
    90  H    0.164628
    91  O   -0.552042
    92  C   -0.365602
    93  H    0.183178
    94  H    0.198098
    95  C    0.565476
    96  O   -0.448245
    97  O   -0.570582
    98  N   -0.600214
    99  H    0.350976
   100  C   -0.035269
   101  H    0.175701
   102  C    0.580918
   103  C   -0.292116
   104  H    0.137782
   105  H    0.168368
   106  O   -0.652923
   107  C   -0.278543
   108  H    0.150954
   109  H    0.192800
   110  C   -0.165734
   111  H    0.177318
   112  H    0.143494
   113  N   -0.597957
   114  H    0.376676
   115  N   -0.765289
   116  H    0.368094
   117  H    0.370279
   118  N   -0.755995
   119  H    0.343701
   120  H    0.416659
   121  C    0.795026
   122  O   -0.557344
   123  H    0.405914
 Sum of Mulliken charges =   1.00000

 Dipole moment (field-independent basis, Debye):
    X=              2.2838    Y=             18.9926    Z=             11.1093  Tot=             22.1213
 Quadrupole moment (field-independent basis, Debye-Ang):
   XX=           -167.7683   YY=           -218.8448   ZZ=           -238.7034
   XY=             17.9741   XZ=           -116.8887   YZ=             71.2879

 Normal termination of Gaussian 16 at Mon Jul 18 02:04:40 2022.
