 Gaussian 16, Revision C.01,
 Gaussian 16:  ES64L-G16RevC.01  3-Jul-2019

 -------------------------------------------------------------------
 # B3LYP/6-31G* guess=read geom=check nosymm integral(ultrafinegrid)
 -------------------------------------------------------------------

 ------------------------------------------------------
 Candidate Structure: Conf:123 Charge calc in gas phase
 ------------------------------------------------------
 Structure from the checkpoint file:  "conf-123.chk"
 Charge =  1 Multiplicity = 1

                          Input orientation:
 ---------------------------------------------------------------------
 Center     Atomic      Atomic             Coordinates (Angstroms)
 Number     Number       Type             X           Y           Z
 ---------------------------------------------------------------------
      1          7           0       -2.484350    6.124078    1.516993
      2          1           0       -3.388741    6.388752    1.109642
      3          1           0       -1.882332    5.525327    0.813462
      4          1           0       -1.920564    6.956893    1.709326
      5          6           0       -2.740339    5.286162    2.728126
      6          1           0       -1.796643    4.809435    2.995009
      7          6           0       -3.752384    4.229998    2.246280
      8          6           0       -3.227550    6.129346    3.936032
      9          1           0       -2.344195    6.619449    4.362711
     10          1           0       -3.580648    5.423805    4.696886
     11          8           0       -4.678766    4.573835    1.510397
     12          6           0       -4.280159    7.177833    3.632887
     13          6           0       -3.896711    8.512828    3.437254
     14          1           0       -2.848789    8.792115    3.536091
     15          6           0       -5.640842    6.851861    3.541551
     16          1           0       -5.960625    5.824777    3.689548
     17          6           0       -4.843784    9.497402    3.148979
     18          1           0       -4.527023   10.526995    3.008074
     19          6           0       -6.589111    7.833661    3.256744
     20          1           0       -7.639524    7.563934    3.193440
     21          6           0       -6.193736    9.158260    3.056985
     22          1           0       -6.934877    9.921895    2.838963
     23          7           0       -3.522490    2.965780    2.659452
     24          1           0       -2.709880    2.765581    3.242747
     25          6           0       -4.332721    1.833827    2.218635
     26          1           0       -5.366717    1.981551    2.555800
     27          6           0       -3.744949    0.559364    2.844516
     28          6           0       -4.328151    1.667571    0.683374
     29          1           0       -4.942666    0.809920    0.390217
     30          1           0       -3.305356    1.502623    0.329293
     31          1           0       -4.729524    2.566016    0.213567
     32          8           0       -2.542145    0.462468    3.099026
     33          7           0       -4.630983   -0.450841    3.031144
     34          1           0       -5.587528   -0.324209    2.723801
     35          6           0       -4.227376   -1.818916    3.389989
     36          1           0       -3.336249   -1.716275    4.014730
     37          6           0       -3.874071   -2.571918    2.084126
     38          6           0       -5.343992   -2.524188    4.151687
     39          1           0       -5.009536   -3.513498    4.477423
     40          1           0       -6.215485   -2.670972    3.506543
     41          1           0       -5.631651   -1.945181    5.034162
     42          8           0       -4.717657   -3.189509    1.438994
     43          7           0       -2.586931   -2.420828    1.684610
     44          1           0       -1.921401   -1.924665    2.266406
     45          6           0       -2.094388   -2.911648    0.409430
     46          1           0       -2.342307   -3.976907    0.316566
     47          6           0       -0.562147   -2.751541    0.451068
     48          6           0       -2.762691   -2.148011   -0.780347
     49          1           0       -3.812162   -2.031027   -0.496573
     50          1           0       -2.329449   -1.142769   -0.848019
     51          8           0        0.012376   -2.434164    1.499453
     52          6           0       -2.697690   -2.846188   -2.122894
     53          6           0       -1.972082   -2.316238   -3.202705
     54          1           0       -1.430284   -1.380186   -3.078286
     55          6           0       -3.399856   -4.044086   -2.329018
     56          1           0       -3.994300   -4.460167   -1.518711
     57          6           0       -1.932870   -2.959766   -4.438773
     58          1           0       -1.379895   -2.542609   -5.274353
     59          6           0       -3.369406   -4.697136   -3.558204
     60          1           0       -3.925695   -5.622205   -3.696501
     61          8           0       -2.558322   -4.745713   -5.847347
     62          1           0       -3.104840   -5.547350   -5.856598
     63          6           0       -2.632327   -4.157331   -4.620638
     64          7           0        0.102917   -2.928722   -0.717879
     65          1           0       -0.441744   -3.080624   -1.561565
     66          6           0        1.513286   -2.540101   -0.893236
     67          1           0        2.057045   -2.886138   -0.010194
     68          6           0        1.538722   -0.991355   -0.923520
     69          6           0        2.099198   -3.156057   -2.164944
     70          1           0        1.543287   -2.761992   -3.025219
     71          1           0        3.127026   -2.781247   -2.268366
     72          8           0        1.454346   -0.343756   -1.976576
     73          6           0        2.115783   -4.697649   -2.211431
     74          1           0        1.084527   -5.054519   -2.078306
     75          6           0        2.596480   -5.166852   -3.592940
     76          1           0        3.627282   -4.840459   -3.783364
     77          1           0        2.578535   -6.259766   -3.663330
     78          1           0        1.963262   -4.769537   -4.395056
     79          6           0        2.975739   -5.311066   -1.096262
     80          1           0        4.013332   -4.957689   -1.159511
     81          1           0        2.597469   -5.070032   -0.096513
     82          1           0        2.993770   -6.403078   -1.180283
     83          7           0        1.549969   -0.424653    0.301310
     84          1           0        1.432243   -1.084415    1.067785
     85          6           0        1.022712    0.908553    0.570347
     86          1           0        0.016402    0.985327    0.133461
     87          6           0        1.871503    2.053155   -0.001926
     88          6           0        0.907989    1.032601    2.110965
     89          1           0        0.262439    0.216076    2.451145
     90          1           0        1.899288    0.874266    2.548006
     91          8           0        3.110392    2.002428   -0.036528
     92          6           0        0.323121    2.366292    2.590282
     93          1           0       -0.539597    2.667534    1.992772
     94          1           0        1.064545    3.170635    2.493368
     95          6           0       -0.122380    2.374079    4.034259
     96          8           0       -1.073438    3.009845    4.457849
     97          8           0        0.667020    1.646123    4.838741
     98          7           0        1.143880    3.129835   -0.362803
     99          1           0        0.126322    3.067727   -0.297981
    100          6           0        1.538419    4.536262   -0.195637
    101          1           0        2.203578    4.605118    0.675072
    102          6           0        0.239274    5.316996    0.198705
    103          6           0        2.253578    5.206297   -1.387270
    104          1           0        2.015545    6.271141   -1.315971
    105          1           0        1.807093    4.839011   -2.319581
    106          8           0        0.350605    6.505419    0.516814
    107          6           0        3.796659    5.042838   -1.404967
    108          1           0        4.141264    4.546128   -0.490622
    109          1           0        4.271855    6.029840   -1.411837
    110          6           0        4.359085    4.284064   -2.608650
    111          1           0        5.456901    4.347007   -2.600269
    112          1           0        4.000225    4.739012   -3.540284
    113          7           0        3.939164    2.878621   -2.582472
    114          1           0        3.669513    2.491616   -1.662063
    115          7           0        4.530539    2.476862   -4.791132
    116          1           0        4.439950    1.933010   -5.635672
    117          1           0        5.194992    3.235187   -4.797897
    118          7           0        3.371174    0.869155   -3.587890
    119          1           0        3.503509    0.211059   -4.341169
    120          1           0        2.698777    0.600067   -2.859515
    121          6           0        3.948158    2.074356   -3.639300
    122          8           0       -0.847302    4.622539    0.187229
    123          1           0        0.307437    1.725313    5.743563
 ---------------------------------------------------------------------

 SCF Done:  E(RB3LYP) =  -2974.08702076     A.U. after    3 cycles

 Alpha  occ. eigenvalues --  -19.28325 -19.24750 -19.22790 -19.22021 -19.21560
 Alpha  occ. eigenvalues --  -19.21103 -19.20759 -19.19984 -19.18604 -19.18452
 Alpha  occ. eigenvalues --  -19.16413 -14.49395 -14.49104 -14.47356 -14.47334
 Alpha  occ. eigenvalues --  -14.45422 -14.45108 -14.44887 -14.44108 -14.43515
 Alpha  occ. eigenvalues --  -14.43064 -10.44660 -10.41097 -10.38436 -10.38407
 Alpha  occ. eigenvalues --  -10.37797 -10.37780 -10.37237 -10.35696 -10.35144
 Alpha  occ. eigenvalues --  -10.32994 -10.32884 -10.32814 -10.32436 -10.32221
 Alpha  occ. eigenvalues --  -10.32139 -10.31916 -10.31110 -10.30343 -10.28603
 Alpha  occ. eigenvalues --  -10.28358 -10.27942 -10.27601 -10.27065 -10.26902
 Alpha  occ. eigenvalues --  -10.26759 -10.26652 -10.26536 -10.26449 -10.26396
 Alpha  occ. eigenvalues --  -10.26383 -10.26235 -10.25886 -10.25860 -10.25559
 Alpha  occ. eigenvalues --  -10.25195 -10.25174 -10.25064 -10.25039 -10.24981
 Alpha  occ. eigenvalues --  -10.24171 -10.24169  -1.19369  -1.13863  -1.13243
 Alpha  occ. eigenvalues --   -1.12884  -1.12872  -1.12656  -1.12205  -1.11933
 Alpha  occ. eigenvalues --   -1.10831  -1.10372  -1.10091  -1.04603  -1.02399
 Alpha  occ. eigenvalues --   -1.02333  -1.02137  -1.01575  -1.01247  -1.01190
 Alpha  occ. eigenvalues --   -1.00595  -0.99962  -0.99680  -0.92775  -0.92019
 Alpha  occ. eigenvalues --   -0.89746  -0.88901  -0.88209  -0.87453  -0.86475
 Alpha  occ. eigenvalues --   -0.85481  -0.84266  -0.83242  -0.83090  -0.82090
 Alpha  occ. eigenvalues --   -0.81224  -0.80636  -0.80183  -0.79988  -0.77036
 Alpha  occ. eigenvalues --   -0.75158  -0.74904  -0.74712  -0.74465  -0.73800
 Alpha  occ. eigenvalues --   -0.73034  -0.72152  -0.71160  -0.70600  -0.69643
 Alpha  occ. eigenvalues --   -0.69507  -0.68923  -0.68404  -0.67462  -0.67054
 Alpha  occ. eigenvalues --   -0.66919  -0.66616  -0.66219  -0.65860  -0.65625
 Alpha  occ. eigenvalues --   -0.65577  -0.64907  -0.64395  -0.64178  -0.63207
 Alpha  occ. eigenvalues --   -0.62672  -0.62361  -0.61563  -0.61525  -0.61016
 Alpha  occ. eigenvalues --   -0.60422  -0.59816  -0.59015  -0.58189  -0.57932
 Alpha  occ. eigenvalues --   -0.57693  -0.57526  -0.57359  -0.57021  -0.56892
 Alpha  occ. eigenvalues --   -0.56518  -0.55908  -0.55538  -0.55119  -0.55072
 Alpha  occ. eigenvalues --   -0.54622  -0.54330  -0.54033  -0.53768  -0.53510
 Alpha  occ. eigenvalues --   -0.53279  -0.52976  -0.52453  -0.52289  -0.52092
 Alpha  occ. eigenvalues --   -0.52008  -0.51742  -0.51401  -0.51279  -0.51069
 Alpha  occ. eigenvalues --   -0.50516  -0.50155  -0.49962  -0.49782  -0.49580
 Alpha  occ. eigenvalues --   -0.49492  -0.49334  -0.49197  -0.48767  -0.48397
 Alpha  occ. eigenvalues --   -0.48266  -0.48201  -0.48138  -0.47946  -0.47726
 Alpha  occ. eigenvalues --   -0.47420  -0.47205  -0.46849  -0.46705  -0.46575
 Alpha  occ. eigenvalues --   -0.46459  -0.46303  -0.46074  -0.45761  -0.45442
 Alpha  occ. eigenvalues --   -0.45418  -0.45313  -0.45140  -0.44975  -0.44785
 Alpha  occ. eigenvalues --   -0.44434  -0.44281  -0.43782  -0.43619  -0.43427
 Alpha  occ. eigenvalues --   -0.43376  -0.43341  -0.42688  -0.42565  -0.42313
 Alpha  occ. eigenvalues --   -0.42063  -0.41906  -0.40789  -0.40439  -0.40354
 Alpha  occ. eigenvalues --   -0.40139  -0.40137  -0.40057  -0.40026  -0.39836
 Alpha  occ. eigenvalues --   -0.39741  -0.37523  -0.36960  -0.36685  -0.36383
 Alpha  occ. eigenvalues --   -0.35944  -0.35373  -0.35041  -0.34672  -0.34304
 Alpha  occ. eigenvalues --   -0.34023  -0.33677  -0.33510  -0.33348  -0.32742
 Alpha  occ. eigenvalues --   -0.32614  -0.32479  -0.31430  -0.31222  -0.30740
 Alpha  occ. eigenvalues --   -0.30420  -0.28952
 Alpha virt. eigenvalues --   -0.09246  -0.08708  -0.08403  -0.08006  -0.07505
 Alpha virt. eigenvalues --   -0.07410  -0.07104  -0.06848  -0.06455  -0.06189
 Alpha virt. eigenvalues --   -0.06045  -0.05171  -0.04221  -0.02658  -0.02150

 Mulliken charges:
               1
     1  N   -0.762370
     2  H    0.396346
     3  H    0.451737
     4  H    0.389188
     5  C   -0.104365
     6  H    0.203111
     7  C    0.648615
     8  C   -0.377274
     9  H    0.172191
    10  H    0.186410
    11  O   -0.539171
    12  C    0.150926
    13  C   -0.207692
    14  H    0.128557
    15  C   -0.155555
    16  H    0.136578
    17  C   -0.124097
    18  H    0.145567
    19  C   -0.129343
    20  H    0.145613
    21  C   -0.127198
    22  H    0.147046
    23  N   -0.669358
    24  H    0.409519
    25  C   -0.010365
    26  H    0.170138
    27  C    0.605806
    28  C   -0.462775
    29  H    0.154758
    30  H    0.155388
    31  H    0.211207
    32  O   -0.553524
    33  N   -0.594928
    34  H    0.343928
    35  C   -0.058704
    36  H    0.178874
    37  C    0.627180
    38  C   -0.464910
    39  H    0.175792
    40  H    0.178657
    41  H    0.162663
    42  O   -0.530118
    43  N   -0.621431
    44  H    0.366485
    45  C   -0.031073
    46  H    0.197898
    47  C    0.609832
    48  C   -0.370496
    49  H    0.202560
    50  H    0.145240
    51  O   -0.550402
    52  C    0.119697
    53  C   -0.229258
    54  H    0.144735
    55  C   -0.186884
    56  H    0.165806
    57  C   -0.154817
    58  H    0.146747
    59  C   -0.189839
    60  H    0.139835
    61  O   -0.633971
    62  H    0.416531
    63  C    0.355240
    64  N   -0.615144
    65  H    0.367582
    66  C   -0.064665
    67  H    0.187106
    68  C    0.628619
    69  C   -0.288081
    70  H    0.152485
    71  H    0.141614
    72  O   -0.579511
    73  C   -0.075674
    74  H    0.136520
    75  C   -0.446363
    76  H    0.140671
    77  H    0.157829
    78  H    0.145465
    79  C   -0.454833
    80  H    0.144446
    81  H    0.151465
    82  H    0.159717
    83  N   -0.596795
    84  H    0.383612
    85  C   -0.034875
    86  H    0.162594
    87  C    0.610402
    88  C   -0.318769
    89  H    0.199232
    90  H    0.189236
    91  O   -0.568332
    92  C   -0.381809
    93  H    0.189435
    94  H    0.193870
    95  C    0.621702
    96  O   -0.495522
    97  O   -0.544269
    98  N   -0.594880
    99  H    0.370186
   100  C   -0.046236
   101  H    0.168935
   102  C    0.594987
   103  C   -0.278124
   104  H    0.192650
   105  H    0.147655
   106  O   -0.558651
   107  C   -0.308994
   108  H    0.177262
   109  H    0.169388
   110  C   -0.158845
   111  H    0.168604
   112  H    0.170632
   113  N   -0.631460
   114  H    0.429900
   115  N   -0.767132
   116  H    0.369861
   117  H    0.379945
   118  N   -0.799579
   119  H    0.355717
   120  H    0.433976
   121  C    0.803300
   122  O   -0.659427
   123  H    0.424887
 Sum of Mulliken charges =   1.00000

 Dipole moment (field-independent basis, Debye):
    X=              3.3400    Y=              6.0275    Z=             -5.6636  Tot=              8.9198
 Quadrupole moment (field-independent basis, Debye-Ang):
   XX=           -272.0575   YY=           -267.4061   ZZ=           -268.3877
   XY=              8.8601   XZ=            -69.9881   YZ=             17.3734

 Normal termination of Gaussian 16 at Mon Jul 18 02:05:36 2022.
