 Gaussian 16, Revision C.01,
 Gaussian 16:  ES64L-G16RevC.01  3-Jul-2019

 -------------------------------------------------------------------
 # B3LYP/6-31G* guess=read geom=check nosymm integral(ultrafinegrid)
 -------------------------------------------------------------------

 ------------------------------------------------------
 Candidate Structure: Conf:474 Charge calc in gas phase
 ------------------------------------------------------
 Structure from the checkpoint file:  "conf-474.chk"
 Charge =  1 Multiplicity = 1

                          Input orientation:
 ---------------------------------------------------------------------
 Center     Atomic      Atomic             Coordinates (Angstroms)
 Number     Number       Type             X           Y           Z
 ---------------------------------------------------------------------
      1          7           0      -12.276868    3.695354    5.526479
      2          1           0      -12.397635    3.040653    4.699954
      3          1           0      -13.075626    4.324082    5.634189
      4          1           0      -12.165743    3.127506    6.382712
      5          6           0      -10.976248    4.393165    5.199024
      6          1           0      -11.235268    5.364698    4.766579
      7          6           0      -10.400252    3.501332    4.057384
      8          6           0      -10.110790    4.589732    6.465549
      9          1           0      -10.592445    5.354304    7.086765
     10          1           0       -9.152898    5.020195    6.154916
     11          8           0      -11.162920    2.666143    3.548009
     12          6           0       -9.905343    3.317832    7.263601
     13          6           0      -10.799048    2.987702    8.297576
     14          1           0      -11.575119    3.694827    8.591026
     15          6           0       -8.852591    2.437603    6.970610
     16          1           0       -8.130528    2.692113    6.198685
     17          6           0      -10.658043    1.792460    9.009357
     18          1           0      -11.348912    1.557629    9.813635
     19          6           0       -8.710104    1.249892    7.687756
     20          1           0       -7.883940    0.582535    7.460834
     21          6           0       -9.615264    0.919970    8.700152
     22          1           0       -9.496998   -0.005307    9.255820
     23          7           0       -9.152170    3.740148    3.676896
     24          1           0       -8.510937    4.317025    4.225311
     25          6           0       -8.434853    2.951060    2.673885
     26          1           0       -8.744484    1.904572    2.774734
     27          6           0       -6.945762    3.087994    3.080396
     28          6           0       -8.725557    3.435120    1.245495
     29          1           0       -8.194959    2.823166    0.509806
     30          1           0       -8.414498    4.476428    1.115677
     31          1           0       -9.796356    3.354988    1.038668
     32          8           0       -6.635334    3.807342    4.041022
     33          7           0       -6.074057    2.395871    2.341329
     34          1           0       -6.351908    1.865799    1.515185
     35          6           0       -4.625293    2.466411    2.498174
     36          1           0       -4.337992    3.516340    2.629193
     37          6           0       -4.057588    1.932145    1.163430
     38          6           0       -4.130005    1.652490    3.705295
     39          1           0       -3.042968    1.729212    3.808067
     40          1           0       -4.392518    0.595878    3.590154
     41          1           0       -4.588569    2.038391    4.619494
     42          8           0       -4.801125    1.374093    0.350714
     43          7           0       -2.738247    2.104243    0.979458
     44          1           0       -2.142746    2.545666    1.674787
     45          6           0       -2.021406    1.614278   -0.192370
     46          1           0       -2.430300    0.632817   -0.452248
     47          6           0       -0.553923    1.462592    0.262793
     48          6           0       -2.219009    2.568583   -1.405153
     49          1           0       -3.301058    2.608256   -1.580234
     50          1           0       -1.901281    3.572927   -1.102198
     51          8           0       -0.135204    2.114803    1.220054
     52          6           0       -1.472869    2.141126   -2.647088
     53          6           0       -0.507374    2.974758   -3.226304
     54          1           0       -0.342884    3.968493   -2.814013
     55          6           0       -1.681289    0.880330   -3.232682
     56          1           0       -2.462028    0.227080   -2.844237
     57          6           0        0.252615    2.557837   -4.318451
     58          1           0        0.990095    3.215888   -4.769680
     59          6           0       -0.910659    0.432251   -4.302596
     60          1           0       -1.051031   -0.558250   -4.722702
     61          8           0        0.922273    0.861981   -5.821109
     62          1           0        0.888003   -0.147090   -5.893284
     63          6           0        0.092923    1.262922   -4.843269
     64          7           0        0.201346    0.567570   -0.428407
     65          1           0       -0.247684    0.051387   -1.177053
     66          6           0        1.506082    0.097060    0.041493
     67          1           0        1.806792    0.800934    0.823293
     68          6           0        2.612730    0.148424   -1.034249
     69          6           0        1.425976   -1.330412    0.623640
     70          1           0        1.068881   -2.003372   -0.170053
     71          1           0        2.452191   -1.640019    0.847134
     72          8           0        3.675115   -0.442003   -0.852324
     73          6           0        0.542258   -1.503871    1.872606
     74          1           0       -0.471876   -1.150125    1.631405
     75          6           0        0.439207   -2.996635    2.224139
     76          1           0        1.424573   -3.408297    2.477132
     77          1           0       -0.216993   -3.153403    3.088052
     78          1           0        0.039013   -3.581432    1.387336
     79          6           0        1.053826   -0.695464    3.075341
     80          1           0        2.086777   -0.973476    3.321913
     81          1           0        1.022992    0.382756    2.889273
     82          1           0        0.439307   -0.894111    3.961608
     83          7           0        2.358123    0.863349   -2.162368
     84          1           0        1.499557    1.396061   -2.241835
     85          6           0        3.368717    1.030038   -3.206661
     86          1           0        2.852001    1.526838   -4.036316
     87          6           0        3.839851   -0.332931   -3.761639
     88          6           0        4.567377    1.887872   -2.752837
     89          1           0        4.186364    2.703222   -2.128623
     90          1           0        5.217466    1.271747   -2.129888
     91          8           0        5.046723   -0.494673   -4.051996
     92          6           0        5.362802    2.479199   -3.939554
     93          1           0        4.955558    3.441910   -4.258283
     94          1           0        5.314612    1.790324   -4.789080
     95          6           0        6.833215    2.625482   -3.624399
     96          8           0        7.562983    1.727909   -3.239956
     97          8           0        7.291492    3.876557   -3.829482
     98          7           0        2.904378   -1.258381   -3.967520
     99          1           0        1.920905   -0.983069   -3.944324
    100          6           0        3.065824   -2.462508   -4.785142
    101          1           0        3.967957   -2.353879   -5.394639
    102          6           0        1.829182   -2.552579   -5.764963
    103          6           0        3.110708   -3.759706   -3.953266
    104          1           0        3.153578   -4.582808   -4.675354
    105          1           0        2.143718   -3.853482   -3.440932
    106          8           0        0.892225   -1.711838   -5.517703
    107          6           0        4.207287   -3.925257   -2.885635
    108          1           0        3.962082   -4.825722   -2.307653
    109          1           0        4.187509   -3.089629   -2.173939
    110          6           0        5.650164   -4.119408   -3.392804
    111          1           0        5.656869   -4.765710   -4.280526
    112          1           0        6.242862   -4.612018   -2.614390
    113          7           0        6.293311   -2.837441   -3.705967
    114          1           0        5.682653   -2.047650   -3.990662
    115          7           0        8.441085   -3.380169   -2.974234
    116          1           0        9.352206   -3.075669   -2.665945
    117          1           0        8.378668   -4.318013   -3.340703
    118          7           0        7.814790   -1.159637   -3.275833
    119          1           0        8.769839   -0.840280   -3.225517
    120          1           0        7.101573   -0.437695   -3.380693
    121          6           0        7.508201   -2.460980   -3.332722
    122          8           0        1.882053   -3.443665   -6.609411
    123          1           0        8.245900    3.864659   -3.622717
 ---------------------------------------------------------------------

 SCF Done:  E(RB3LYP) =  -2974.04617515     A.U. after    1 cycles

 Alpha  occ. eigenvalues --  -19.26445 -19.25194 -19.22098 -19.19621 -19.19576
 Alpha  occ. eigenvalues --  -19.18777 -19.17602 -19.17440 -19.16576 -19.10114
 Alpha  occ. eigenvalues --  -19.08698 -14.59029 -14.48933 -14.45691 -14.45225
 Alpha  occ. eigenvalues --  -14.43595 -14.43363 -14.42950 -14.42872 -14.41363
 Alpha  occ. eigenvalues --  -14.39350 -10.43278 -10.40682 -10.40647 -10.39016
 Alpha  occ. eigenvalues --  -10.37733 -10.36694 -10.35864 -10.34595 -10.34095
 Alpha  occ. eigenvalues --  -10.33969 -10.33871 -10.32048 -10.32041 -10.30889
 Alpha  occ. eigenvalues --  -10.30295 -10.30131 -10.30099 -10.29844 -10.29685
 Alpha  occ. eigenvalues --  -10.28979 -10.28876 -10.28684 -10.28157 -10.27922
 Alpha  occ. eigenvalues --  -10.27721 -10.26197 -10.24943 -10.24709 -10.24289
 Alpha  occ. eigenvalues --  -10.23951 -10.23828 -10.23533 -10.23402 -10.23329
 Alpha  occ. eigenvalues --  -10.23301 -10.23162 -10.22219 -10.21904 -10.21772
 Alpha  occ. eigenvalues --  -10.21758 -10.21571  -1.18856  -1.16075  -1.13950
 Alpha  occ. eigenvalues --   -1.13114  -1.11604  -1.10476  -1.09428  -1.08855
 Alpha  occ. eigenvalues --   -1.08066  -1.06803  -1.06443  -1.05700  -1.02674
 Alpha  occ. eigenvalues --   -1.01910  -0.99962  -0.99387  -0.98507  -0.97590
 Alpha  occ. eigenvalues --   -0.97380  -0.97366  -0.95896  -0.93931  -0.92979
 Alpha  occ. eigenvalues --   -0.89408  -0.88787  -0.86509  -0.86000  -0.85590
 Alpha  occ. eigenvalues --   -0.85013  -0.84949  -0.83927  -0.83045  -0.80659
 Alpha  occ. eigenvalues --   -0.79807  -0.78971  -0.78449  -0.77399  -0.76979
 Alpha  occ. eigenvalues --   -0.76827  -0.74449  -0.74041  -0.73077  -0.72665
 Alpha  occ. eigenvalues --   -0.72650  -0.71589  -0.71202  -0.70920  -0.70485
 Alpha  occ. eigenvalues --   -0.70164  -0.69245  -0.68724  -0.67473  -0.66685
 Alpha  occ. eigenvalues --   -0.66501  -0.65829  -0.65616  -0.65169  -0.64781
 Alpha  occ. eigenvalues --   -0.64515  -0.63473  -0.63344  -0.62579  -0.61984
 Alpha  occ. eigenvalues --   -0.61807  -0.61207  -0.61153  -0.60592  -0.59897
 Alpha  occ. eigenvalues --   -0.59304  -0.58558  -0.57940  -0.57631  -0.57125
 Alpha  occ. eigenvalues --   -0.56983  -0.56790  -0.56694  -0.56224  -0.55971
 Alpha  occ. eigenvalues --   -0.55157  -0.54929  -0.54875  -0.54712  -0.53874
 Alpha  occ. eigenvalues --   -0.53293  -0.53188  -0.53101  -0.52969  -0.52678
 Alpha  occ. eigenvalues --   -0.52285  -0.52017  -0.51826  -0.51563  -0.51340
 Alpha  occ. eigenvalues --   -0.51289  -0.51157  -0.50795  -0.50665  -0.50287
 Alpha  occ. eigenvalues --   -0.49884  -0.49630  -0.49261  -0.48895  -0.48655
 Alpha  occ. eigenvalues --   -0.48380  -0.48053  -0.47844  -0.47706  -0.47389
 Alpha  occ. eigenvalues --   -0.47271  -0.47156  -0.47066  -0.46716  -0.46469
 Alpha  occ. eigenvalues --   -0.46302  -0.45691  -0.45643  -0.45352  -0.45259
 Alpha  occ. eigenvalues --   -0.45217  -0.45035  -0.44965  -0.44414  -0.44050
 Alpha  occ. eigenvalues --   -0.43879  -0.43856  -0.43157  -0.43077  -0.42761
 Alpha  occ. eigenvalues --   -0.42658  -0.42628  -0.42192  -0.41427  -0.41203
 Alpha  occ. eigenvalues --   -0.41011  -0.40696  -0.40477  -0.40179  -0.39734
 Alpha  occ. eigenvalues --   -0.39408  -0.39038  -0.38999  -0.37969  -0.37808
 Alpha  occ. eigenvalues --   -0.37560  -0.37203  -0.37153  -0.36938  -0.36607
 Alpha  occ. eigenvalues --   -0.36410  -0.36276  -0.36215  -0.36121  -0.35998
 Alpha  occ. eigenvalues --   -0.35282  -0.34887  -0.33869  -0.33510  -0.33391
 Alpha  occ. eigenvalues --   -0.32848  -0.32784  -0.32683  -0.32245  -0.30760
 Alpha  occ. eigenvalues --   -0.30022  -0.29354  -0.29217  -0.25506  -0.24938
 Alpha  occ. eigenvalues --   -0.24432  -0.22554
 Alpha virt. eigenvalues --   -0.12618  -0.12149  -0.11977  -0.08527  -0.07699
 Alpha virt. eigenvalues --   -0.05775  -0.05141  -0.04784  -0.04633  -0.04331
 Alpha virt. eigenvalues --   -0.04103  -0.03311  -0.03048  -0.02797  -0.02340

 Mulliken charges:
               1
     1  N   -0.757440
     2  H    0.433728
     3  H    0.409923
     4  H    0.404076
     5  C   -0.112410
     6  H    0.228109
     7  C    0.657120
     8  C   -0.393777
     9  H    0.189093
    10  H    0.209466
    11  O   -0.540790
    12  C    0.139394
    13  C   -0.234958
    14  H    0.141472
    15  C   -0.183640
    16  H    0.164324
    17  C   -0.118653
    18  H    0.165297
    19  C   -0.124902
    20  H    0.165029
    21  C   -0.121269
    22  H    0.167818
    23  N   -0.609425
    24  H    0.377258
    25  C   -0.062676
    26  H    0.201932
    27  C    0.634360
    28  C   -0.454893
    29  H    0.183455
    30  H    0.172207
    31  H    0.185871
    32  O   -0.557591
    33  N   -0.620512
    34  H    0.370558
    35  C   -0.043587
    36  H    0.185959
    37  C    0.626219
    38  C   -0.452437
    39  H    0.169659
    40  H    0.165209
    41  H    0.179845
    42  O   -0.546227
    43  N   -0.623620
    44  H    0.359845
    45  C   -0.051760
    46  H    0.179180
    47  C    0.621031
    48  C   -0.344784
    49  H    0.180250
    50  H    0.150800
    51  O   -0.535940
    52  C    0.165294
    53  C   -0.213104
    54  H    0.126342
    55  C   -0.238529
    56  H    0.133523
    57  C   -0.199360
    58  H    0.137449
    59  C   -0.195189
    60  H    0.188445
    61  O   -0.687436
    62  H    0.457557
    63  C    0.356552
    64  N   -0.629305
    65  H    0.347969
    66  C   -0.077776
    67  H    0.211722
    68  C    0.633774
    69  C   -0.261434
    70  H    0.132291
    71  H    0.176366
    72  O   -0.537342
    73  C   -0.068905
    74  H    0.111777
    75  C   -0.443124
    76  H    0.146319
    77  H    0.141227
    78  H    0.143053
    79  C   -0.463106
    80  H    0.144391
    81  H    0.168215
    82  H    0.137361
    83  N   -0.643947
    84  H    0.363240
    85  C   -0.067204
    86  H    0.200385
    87  C    0.655688
    88  C   -0.269099
    89  H    0.148252
    90  H    0.195335
    91  O   -0.610738
    92  C   -0.349232
    93  H    0.171837
    94  H    0.205314
    95  C    0.575631
    96  O   -0.493310
    97  O   -0.546735
    98  N   -0.566144
    99  H    0.347844
   100  C   -0.099602
   101  H    0.154503
   102  C    0.597085
   103  C   -0.259249
   104  H    0.173841
   105  H    0.141603
   106  O   -0.646465
   107  C   -0.304469
   108  H    0.149846
   109  H    0.179285
   110  C   -0.153929
   111  H    0.174644
   112  H    0.155737
   113  N   -0.626326
   114  H    0.439234
   115  N   -0.757460
   116  H    0.361644
   117  H    0.371115
   118  N   -0.788048
   119  H    0.355443
   120  H    0.432899
   121  C    0.780163
   122  O   -0.532488
   123  H    0.411664
 Sum of Mulliken charges =   1.00000

 Dipole moment (field-independent basis, Debye):
    X=            -28.1704    Y=             13.9958    Z=             27.4985  Tot=             41.7806
 Quadrupole moment (field-independent basis, Debye-Ang):
   XX=            310.0772   YY=           -276.4668   ZZ=           -283.8904
   XY=           -208.6304   XZ=           -318.3494   YZ=             56.3369

 Normal termination of Gaussian 16 at Mon Jul 18 02:03:31 2022.
