 Gaussian 16, Revision C.01,
 Gaussian 16:  ES64L-G16RevC.01  3-Jul-2019

 -------------------------------------------------------------------
 # B3LYP/6-31G* guess=read geom=check nosymm integral(ultrafinegrid)
 -------------------------------------------------------------------

 ------------------------------------------------------
 Candidate Structure: Conf:727 Charge calc in gas phase
 ------------------------------------------------------
 Structure from the checkpoint file:  "conf-727.chk"
 Charge =  1 Multiplicity = 1

                          Input orientation:
 ---------------------------------------------------------------------
 Center     Atomic      Atomic             Coordinates (Angstroms)
 Number     Number       Type             X           Y           Z
 ---------------------------------------------------------------------
      1          7           0       -3.881806    0.498057   -0.448951
      2          1           0       -3.871455    0.136776   -1.429279
      3          1           0       -2.905405    0.749120   -0.183921
      4          1           0       -4.477515    1.348190   -0.402894
      5          6           0       -4.499259   -0.473361    0.522311
      6          1           0       -5.088038   -1.179962   -0.071690
      7          6           0       -5.490828    0.389710    1.348251
      8          6           0       -3.392578   -1.219803    1.297223
      9          1           0       -2.879327   -0.507162    1.951558
     10          1           0       -2.644718   -1.541632    0.561669
     11          8           0       -5.862493    1.466001    0.861145
     12          6           0       -3.873911   -2.421986    2.088884
     13          6           0       -3.708368   -2.470916    3.481134
     14          1           0       -3.229493   -1.639667    3.994415
     15          6           0       -4.471002   -3.517112    1.445478
     16          1           0       -4.591372   -3.513107    0.363974
     17          6           0       -4.137891   -3.580885    4.214065
     18          1           0       -3.998375   -3.601246    5.291052
     19          6           0       -4.899742   -4.625035    2.175147
     20          1           0       -5.358016   -5.464431    1.660105
     21          6           0       -4.736968   -4.658687    3.562549
     22          1           0       -5.071852   -5.522071    4.129825
     23          7           0       -5.890196   -0.052170    2.548628
     24          1           0       -5.509158   -0.919187    2.912972
     25          6           0       -6.715840    0.768411    3.458007
     26          1           0       -7.360336    1.377871    2.816848
     27          6           0       -5.801946    1.725504    4.286419
     28          6           0       -7.553398   -0.125302    4.364086
     29          1           0       -8.151774    0.490591    5.038496
     30          1           0       -6.917739   -0.761356    4.988470
     31          1           0       -8.220956   -0.754751    3.768198
     32          8           0       -5.799865    1.711078    5.510449
     33          7           0       -5.024458    2.527045    3.511880
     34          1           0       -5.140841    2.489668    2.502976
     35          6           0       -3.935475    3.377228    3.968146
     36          1           0       -4.334730    4.277388    4.457046
     37          6           0       -3.165640    3.782766    2.696342
     38          6           0       -2.975083    2.667515    4.944216
     39          1           0       -2.179516    3.349000    5.261290
     40          1           0       -2.513343    1.801548    4.457026
     41          1           0       -3.528043    2.330084    5.821449
     42          8           0       -3.293085    3.139570    1.643625
     43          7           0       -2.310586    4.819152    2.808408
     44          1           0       -2.351438    5.382261    3.649669
     45          6           0       -1.626688    5.422464    1.652519
     46          1           0       -2.324064    5.354105    0.807389
     47          6           0       -0.336313    4.660130    1.237807
     48          6           0       -1.303533    6.900158    1.945775
     49          1           0       -0.524471    6.942243    2.715545
     50          1           0       -0.843390    7.311356    1.042582
     51          8           0        0.713023    5.257363    1.022189
     52          6           0       -2.508188    7.712518    2.370772
     53          6           0       -3.539042    8.016471    1.465747
     54          1           0       -3.462752    7.683352    0.432735
     55          6           0       -2.637539    8.177965    3.684158
     56          1           0       -1.843137    7.986890    4.403603
     57          6           0       -4.655379    8.746699    1.853720
     58          1           0       -5.445891    8.986175    1.149637
     59          6           0       -3.752972    8.913806    4.091971
     60          1           0       -3.824835    9.272384    5.117036
     61          8           0       -5.885857    9.911250    3.497991
     62          1           0       -5.832560   10.194065    4.424372
     63          6           0       -4.768099    9.199289    3.175613
     64          7           0       -0.483732    3.315527    1.105085
     65          1           0       -1.415020    2.913101    1.187514
     66          6           0        0.579237    2.445355    0.624887
     67          1           0        1.277280    3.057597    0.046762
     68          6           0       -0.063391    1.378049   -0.264955
     69          6           0        1.333404    1.717319    1.768780
     70          1           0        0.588836    1.136425    2.329128
     71          1           0        2.023257    0.990280    1.315004
     72          8           0       -1.144311    0.847415    0.067718
     73          6           0        2.125232    2.617596    2.736968
     74          1           0        1.440510    3.385457    3.121543
     75          6           0        2.613003    1.779911    3.929849
     76          1           0        3.301273    0.989673    3.602269
     77          1           0        3.149216    2.404865    4.652760
     78          1           0        1.778820    1.298905    4.455265
     79          6           0        3.299780    3.329189    2.049833
     80          1           0        3.985533    2.603874    1.591112
     81          1           0        2.954626    4.026300    1.281321
     82          1           0        3.875453    3.909646    2.779821
     83          7           0        0.623084    1.005638   -1.350687
     84          1           0        1.489368    1.463233   -1.635840
     85          6           0        0.260174   -0.111019   -2.210385
     86          1           0        0.053005   -0.986434   -1.582428
     87          6           0        1.490704   -0.361611   -3.116025
     88          6           0       -1.000856    0.209807   -3.058595
     89          1           0       -1.674849    0.786614   -2.420879
     90          1           0       -0.720897    0.856955   -3.897565
     91          8           0        2.333179    0.531872   -3.249724
     92          6           0       -1.741463   -1.047384   -3.569503
     93          1           0       -1.801084   -1.782483   -2.754693
     94          1           0       -1.234732   -1.535878   -4.408081
     95          6           0       -3.168819   -0.717160   -3.926123
     96          8           0       -4.019453   -0.328621   -3.126569
     97          8           0       -3.454441   -0.876746   -5.216622
     98          7           0        1.508052   -1.551481   -3.734269
     99          1           0        0.679695   -2.163954   -3.712761
    100          6           0        2.168512   -1.803617   -5.018131
    101          1           0        2.089995   -0.896009   -5.630485
    102          6           0        1.315458   -2.950651   -5.712206
    103          6           0        3.660551   -2.154278   -4.924449
    104          1           0        4.176811   -1.403604   -4.313475
    105          1           0        4.052882   -2.088992   -5.945174
    106          8           0        1.872765   -3.529354   -6.661476
    107          6           0        3.915296   -3.575096   -4.408233
    108          1           0        3.309183   -4.238826   -5.037377
    109          1           0        3.594195   -3.683348   -3.364775
    110          6           0        5.380037   -3.985555   -4.545229
    111          1           0        6.012346   -3.506195   -3.788099
    112          1           0        5.749062   -3.711399   -5.542352
    113          7           0        5.492642   -5.453917   -4.384442
    114          1           0        4.623577   -5.967552   -4.479233
    115          7           0        7.807082   -5.535942   -4.479334
    116          1           0        8.665890   -5.984862   -4.195774
    117          1           0        7.854467   -4.563336   -4.745772
    118          7           0        6.606293   -7.472060   -4.072016
    119          1           0        7.386970   -8.051168   -4.348113
    120          1           0        5.730147   -7.948352   -3.909165
    121          6           0        6.621667   -6.145977   -4.323111
    122          8           0        0.182081   -3.150864   -5.185468
    123          1           0       -4.393641   -0.639894   -5.348165
 ---------------------------------------------------------------------

 SCF Done:  E(RB3LYP) =  -2974.02710234     A.U. after    1 cycles

 Alpha  occ. eigenvalues --  -19.28323 -19.23511 -19.23057 -19.22316 -19.20852
 Alpha  occ. eigenvalues --  -19.20741 -19.18171 -19.17659 -19.17454 -19.10119
 Alpha  occ. eigenvalues --  -19.09104 -14.52227 -14.52035 -14.51633 -14.50769
 Alpha  occ. eigenvalues --  -14.46084 -14.44648 -14.44157 -14.42044 -14.41557
 Alpha  occ. eigenvalues --  -14.39428 -10.48269 -10.41312 -10.39440 -10.37461
 Alpha  occ. eigenvalues --  -10.37453 -10.35661 -10.35431 -10.34920 -10.34244
 Alpha  occ. eigenvalues --  -10.33945 -10.31359 -10.31223 -10.30925 -10.30669
 Alpha  occ. eigenvalues --  -10.30431 -10.30166 -10.29890 -10.29024 -10.28039
 Alpha  occ. eigenvalues --  -10.27687 -10.27685 -10.27445 -10.27371 -10.27362
 Alpha  occ. eigenvalues --  -10.27133 -10.27007 -10.26027 -10.25345 -10.25245
 Alpha  occ. eigenvalues --  -10.25050 -10.25038 -10.25006 -10.24928 -10.24918
 Alpha  occ. eigenvalues --  -10.24673 -10.24575 -10.24409 -10.24040 -10.23644
 Alpha  occ. eigenvalues --  -10.22709 -10.21715  -1.19657  -1.16770  -1.14611
 Alpha  occ. eigenvalues --   -1.12550  -1.12148  -1.11162  -1.10297  -1.09911
 Alpha  occ. eigenvalues --   -1.09434  -1.08997  -1.06325  -1.05721  -1.05102
 Alpha  occ. eigenvalues --   -1.03115  -1.02332  -1.00899  -1.00474  -0.98950
 Alpha  occ. eigenvalues --   -0.98351  -0.96719  -0.94415  -0.94202  -0.91016
 Alpha  occ. eigenvalues --   -0.88919  -0.88518  -0.88011  -0.86863  -0.86074
 Alpha  occ. eigenvalues --   -0.84889  -0.83069  -0.82907  -0.82783  -0.81839
 Alpha  occ. eigenvalues --   -0.81621  -0.80391  -0.79969  -0.78541  -0.78144
 Alpha  occ. eigenvalues --   -0.76035  -0.74922  -0.74263  -0.73791  -0.73114
 Alpha  occ. eigenvalues --   -0.72914  -0.72443  -0.71363  -0.70350  -0.69671
 Alpha  occ. eigenvalues --   -0.69228  -0.68792  -0.68118  -0.67882  -0.67692
 Alpha  occ. eigenvalues --   -0.67293  -0.66864  -0.66697  -0.65716  -0.65254
 Alpha  occ. eigenvalues --   -0.64700  -0.64548  -0.64377  -0.63988  -0.63630
 Alpha  occ. eigenvalues --   -0.62556  -0.61830  -0.61250  -0.60909  -0.59997
 Alpha  occ. eigenvalues --   -0.59891  -0.59806  -0.59434  -0.58210  -0.57950
 Alpha  occ. eigenvalues --   -0.57677  -0.57463  -0.56964  -0.56476  -0.56283
 Alpha  occ. eigenvalues --   -0.55778  -0.55433  -0.55182  -0.54761  -0.54670
 Alpha  occ. eigenvalues --   -0.54203  -0.54167  -0.53803  -0.53687  -0.53015
 Alpha  occ. eigenvalues --   -0.52872  -0.52789  -0.51789  -0.51701  -0.51269
 Alpha  occ. eigenvalues --   -0.51205  -0.50627  -0.50408  -0.50226  -0.49798
 Alpha  occ. eigenvalues --   -0.49600  -0.49420  -0.49168  -0.49071  -0.49020
 Alpha  occ. eigenvalues --   -0.48788  -0.48501  -0.47997  -0.47878  -0.47755
 Alpha  occ. eigenvalues --   -0.47396  -0.47078  -0.46967  -0.46721  -0.46578
 Alpha  occ. eigenvalues --   -0.46282  -0.46064  -0.45559  -0.45458  -0.45247
 Alpha  occ. eigenvalues --   -0.45163  -0.45005  -0.44482  -0.44376  -0.44306
 Alpha  occ. eigenvalues --   -0.44148  -0.43898  -0.43771  -0.43424  -0.43381
 Alpha  occ. eigenvalues --   -0.43343  -0.43098  -0.43023  -0.42756  -0.42580
 Alpha  occ. eigenvalues --   -0.42482  -0.42368  -0.41815  -0.41406  -0.41155
 Alpha  occ. eigenvalues --   -0.40687  -0.40655  -0.40527  -0.40416  -0.40014
 Alpha  occ. eigenvalues --   -0.39163  -0.39048  -0.38394  -0.38218  -0.37900
 Alpha  occ. eigenvalues --   -0.37816  -0.37343  -0.37207  -0.37059  -0.36300
 Alpha  occ. eigenvalues --   -0.35568  -0.34864  -0.34577  -0.34303  -0.33588
 Alpha  occ. eigenvalues --   -0.33115  -0.32093  -0.31540  -0.31204  -0.31098
 Alpha  occ. eigenvalues --   -0.30894  -0.30512  -0.30409  -0.27259  -0.25439
 Alpha  occ. eigenvalues --   -0.24829  -0.23365
 Alpha virt. eigenvalues --   -0.12175  -0.09739  -0.08846  -0.08693  -0.08230
 Alpha virt. eigenvalues --   -0.08197  -0.06910  -0.06600  -0.06112  -0.04516
 Alpha virt. eigenvalues --   -0.04265  -0.04196  -0.03878  -0.03347  -0.03343

 Mulliken charges:
               1
     1  N   -0.844602
     2  H    0.436713
     3  H    0.462339
     4  H    0.419171
     5  C   -0.088126
     6  H    0.213135
     7  C    0.633818
     8  C   -0.382036
     9  H    0.188858
    10  H    0.189516
    11  O   -0.544117
    12  C    0.130139
    13  C   -0.214876
    14  H    0.148431
    15  C   -0.177397
    16  H    0.136660
    17  C   -0.121093
    18  H    0.157240
    19  C   -0.124845
    20  H    0.155112
    21  C   -0.126261
    22  H    0.156329
    23  N   -0.599302
    24  H    0.365409
    25  C   -0.083823
    26  H    0.203098
    27  C    0.623259
    28  C   -0.456745
    29  H    0.190674
    30  H    0.164698
    31  H    0.159478
    32  O   -0.511339
    33  N   -0.660678
    34  H    0.397044
    35  C   -0.000431
    36  H    0.175516
    37  C    0.607138
    38  C   -0.462701
    39  H    0.151927
    40  H    0.146487
    41  H    0.214588
    42  O   -0.574894
    43  N   -0.598257
    44  H    0.345458
    45  C   -0.061957
    46  H    0.186504
    47  C    0.634051
    48  C   -0.393857
    49  H    0.166845
    50  H    0.191554
    51  O   -0.519052
    52  C    0.166985
    53  C   -0.186507
    54  H    0.132179
    55  C   -0.217511
    56  H    0.130750
    57  C   -0.154990
    58  H    0.152244
    59  C   -0.190925
    60  H    0.130504
    61  O   -0.634364
    62  H    0.413060
    63  C    0.352554
    64  N   -0.647440
    65  H    0.381042
    66  C   -0.042488
    67  H    0.182122
    68  C    0.630044
    69  C   -0.249371
    70  H    0.135972
    71  H    0.135192
    72  O   -0.607044
    73  C   -0.068520
    74  H    0.135857
    75  C   -0.444236
    76  H    0.139372
    77  H    0.151316
    78  H    0.134913
    79  C   -0.462336
    80  H    0.129651
    81  H    0.181771
    82  H    0.148198
    83  N   -0.608273
    84  H    0.370632
    85  C   -0.037342
    86  H    0.161547
    87  C    0.589650
    88  C   -0.279999
    89  H    0.147748
    90  H    0.183165
    91  O   -0.544180
    92  C   -0.383815
    93  H    0.163625
    94  H    0.256300
    95  C    0.587724
    96  O   -0.513637
    97  O   -0.510604
    98  N   -0.614625
    99  H    0.357109
   100  C   -0.073953
   101  H    0.159575
   102  C    0.572384
   103  C   -0.255386
   104  H    0.148464
   105  H    0.155788
   106  O   -0.583905
   107  C   -0.324230
   108  H    0.195652
   109  H    0.153856
   110  C   -0.148442
   111  H    0.176042
   112  H    0.187258
   113  N   -0.601465
   114  H    0.372981
   115  N   -0.757127
   116  H    0.383677
   117  H    0.396744
   118  N   -0.760313
   119  H    0.381663
   120  H    0.383595
   121  C    0.828327
   122  O   -0.603176
   123  H    0.424173
 Sum of Mulliken charges =   1.00000

 Dipole moment (field-independent basis, Debye):
    X=             10.2498    Y=            -16.0878    Z=              0.4962  Tot=             19.0819
 Quadrupole moment (field-independent basis, Debye-Ang):
   XX=           -124.2532   YY=           -176.3087   ZZ=           -339.2820
   XY=           -158.9761   XZ=           -103.9635   YZ=             78.4755

 Normal termination of Gaussian 16 at Mon Jul 18 02:04:06 2022.
