 Gaussian 16, Revision C.01,
 Gaussian 16:  ES64L-G16RevC.01  3-Jul-2019

 -------------------------------------------------------------------
 # B3LYP/6-31G* guess=read geom=check nosymm integral(ultrafinegrid)
 -------------------------------------------------------------------

 ------------------------------------------------------
 Candidate Structure: Conf:497 Charge calc in gas phase
 ------------------------------------------------------
 Structure from the checkpoint file:  "conf-497.chk"
 Charge =  1 Multiplicity = 1

                          Input orientation:
 ---------------------------------------------------------------------
 Center     Atomic      Atomic             Coordinates (Angstroms)
 Number     Number       Type             X           Y           Z
 ---------------------------------------------------------------------
      1          7           0      -11.433419    7.308004    4.594540
      2          1           0      -11.831591    6.325815    4.658173
      3          1           0      -12.115413    7.972905    4.223661
      4          1           0      -11.137925    7.605834    5.538922
      5          6           0      -10.219957    7.106428    3.715631
      6          1           0      -10.506575    7.405148    2.702425
      7          6           0      -10.057556    5.555786    3.727425
      8          6           0       -9.025944    7.960078    4.202750
      9          1           0       -9.252918    9.010719    3.985516
     10          1           0       -8.158456    7.709791    3.582994
     11          8           0      -11.000889    4.888982    4.180194
     12          6           0       -8.714195    7.784040    5.675458
     13          6           0       -9.315243    8.629556    6.624509
     14          1           0       -9.921611    9.472920    6.293550
     15          6           0       -7.855926    6.766955    6.120375
     16          1           0       -7.353605    6.125886    5.400137
     17          6           0       -9.082317    8.448976    7.991342
     18          1           0       -9.543840    9.118233    8.711375
     19          6           0       -7.619570    6.594588    7.484117
     20          1           0       -6.943217    5.812393    7.815976
     21          6           0       -8.237589    7.426487    8.421710
     22          1           0       -8.047151    7.287849    9.481638
     23          7           0       -8.944789    5.063293    3.200951
     24          1           0       -8.129002    5.645645    2.998446
     25          6           0       -8.592341    3.642255    3.201450
     26          1           0       -8.956903    3.198312    4.134815
     27          6           0       -7.042065    3.640832    3.202384
     28          6           0       -9.204692    2.897124    2.006361
     29          1           0       -8.943486    1.834907    2.032846
     30          1           0       -8.846516    3.315605    1.060602
     31          1           0      -10.294942    2.975805    2.040336
     32          8           0       -6.429074    4.718071    3.157322
     33          7           0       -6.459553    2.440842    3.254686
     34          1           0       -6.988366    1.568733    3.220926
     35          6           0       -5.020045    2.220310    3.161705
     36          1           0       -4.616406    2.869798    2.376593
     37          6           0       -4.873701    0.738729    2.744186
     38          6           0       -4.298713    2.518802    4.486700
     39          1           0       -3.221366    2.350256    4.390866
     40          1           0       -4.679336    1.873303    5.284977
     41          1           0       -4.458857    3.564168    4.763969
     42          8           0       -5.848700   -0.018506    2.796148
     43          7           0       -3.647578    0.371624    2.340405
     44          1           0       -2.842146    0.985796    2.451657
     45          6           0       -3.270145   -1.009894    2.064894
     46          1           0       -3.690715   -1.641775    2.858858
     47          6           0       -1.728836   -1.035444    2.196399
     48          6           0       -3.830239   -1.538330    0.714277
     49          1           0       -3.779134   -2.634179    0.739455
     50          1           0       -4.899162   -1.295819    0.719010
     51          8           0       -1.121545   -0.025932    2.562506
     52          6           0       -3.148850   -1.043019   -0.544252
     53          6           0       -3.180277    0.304036   -0.941924
     54          1           0       -3.726548    1.028276   -0.343317
     55          6           0       -2.461077   -1.943827   -1.366388
     56          1           0       -2.418233   -2.996385   -1.098684
     57          6           0       -2.517082    0.741361   -2.084869
     58          1           0       -2.530082    1.787213   -2.376505
     59          6           0       -1.810489   -1.525816   -2.524797
     60          1           0       -1.299836   -2.245746   -3.156152
     61          8           0       -1.156218    0.301151   -3.972433
     62          1           0       -0.582170   -0.400830   -4.334568
     63          6           0       -1.808681   -0.170982   -2.879871
     64          7           0       -1.127772   -2.216675    1.942419
     65          1           0       -1.627767   -2.960440    1.467345
     66          6           0        0.325262   -2.371443    1.933172
     67          1           0        0.750762   -1.365919    1.958887
     68          6           0        0.679680   -3.086612    0.617337
     69          6           0        0.787173   -3.184112    3.167462
     70          1           0        0.330434   -2.714020    4.048618
     71          1           0        0.352946   -4.189337    3.084185
     72          8           0       -0.090015   -3.918978    0.131749
     73          6           0        2.309202   -3.296612    3.389974
     74          1           0        2.767195   -3.705819    2.478812
     75          6           0        2.961203   -1.935191    3.680321
     76          1           0        2.524306   -1.476470    4.576722
     77          1           0        4.037079   -2.050204    3.853099
     78          1           0        2.842027   -1.223032    2.855676
     79          6           0        2.592396   -4.282027    4.534542
     80          1           0        2.153985   -3.927488    5.476455
     81          1           0        2.173498   -5.272796    4.323143
     82          1           0        3.670370   -4.399688    4.694124
     83          7           0        1.866005   -2.751407    0.066931
     84          1           0        2.504132   -2.103207    0.518674
     85          6           0        2.400705   -3.367432   -1.137301
     86          1           0        2.069033   -4.411232   -1.166407
     87          6           0        3.933839   -3.281419   -1.012955
     88          6           0        1.880395   -2.627806   -2.398064
     89          1           0        0.806078   -2.487421   -2.258430
     90          1           0        2.327159   -1.627037   -2.431447
     91          8           0        4.453842   -2.424522   -0.288318
     92          6           0        2.123758   -3.363881   -3.719991
     93          1           0        1.697840   -4.377704   -3.684640
     94          1           0        3.184886   -3.505330   -3.952805
     95          6           0        1.481067   -2.670861   -4.900980
     96          8           0        0.673142   -1.759811   -4.853380
     97          8           0        1.893106   -3.192423   -6.069518
     98          7           0        4.632729   -4.159174   -1.752552
     99          1           0        4.191094   -4.780685   -2.431028
    100          6           0        6.062473   -4.046185   -1.993094
    101          1           0        6.300215   -2.979421   -2.092232
    102          6           0        6.338683   -4.736224   -3.375150
    103          6           0        6.920529   -4.664551   -0.847436
    104          1           0        7.521223   -5.487643   -1.250244
    105          1           0        6.237822   -5.113086   -0.119324
    106          8           0        7.551599   -4.657690   -3.782724
    107          6           0        7.841434   -3.692809   -0.083217
    108          1           0        8.393911   -4.273917    0.666899
    109          1           0        7.230308   -2.962288    0.459129
    110          6           0        8.850868   -2.907970   -0.958444
    111          1           0        9.707303   -2.576541   -0.360018
    112          1           0        8.388590   -1.997302   -1.349657
    113          7           0        9.290439   -3.663541   -2.132575
    114          1           0        8.517025   -3.874615   -2.845486
    115          7           0       11.379945   -4.505915   -1.443653
    116          1           0       11.904654   -5.353890   -1.286271
    117          1           0       11.466191   -3.786711   -0.741807
    118          7           0       10.152769   -5.535510   -3.132044
    119          1           0       10.981830   -5.940809   -3.542468
    120          1           0        9.276243   -5.556280   -3.666718
    121          6           0       10.264974   -4.551852   -2.215454
    122          8           0        5.387022   -5.284032   -3.943918
    123          1           0        1.422966   -2.711908   -6.777467
 ---------------------------------------------------------------------

 SCF Done:  E(RB3LYP) =  -2974.04764283     A.U. after    3 cycles

 Alpha  occ. eigenvalues --  -19.26023 -19.24366 -19.21489 -19.19525 -19.18831
 Alpha  occ. eigenvalues --  -19.18696 -19.17032 -19.15849 -19.15654 -19.13196
 Alpha  occ. eigenvalues --  -19.12246 -14.58647 -14.48450 -14.45417 -14.44552
 Alpha  occ. eigenvalues --  -14.43258 -14.42124 -14.41967 -14.40748 -14.40140
 Alpha  occ. eigenvalues --  -14.38964 -10.42840 -10.40260 -10.40245 -10.38399
 Alpha  occ. eigenvalues --  -10.37515 -10.35607 -10.34148 -10.34076 -10.33699
 Alpha  occ. eigenvalues --  -10.32985 -10.32578 -10.31662 -10.31134 -10.30653
 Alpha  occ. eigenvalues --  -10.30532 -10.29781 -10.29689 -10.29462 -10.29327
 Alpha  occ. eigenvalues --  -10.29249 -10.29032 -10.27698 -10.27658 -10.27510
 Alpha  occ. eigenvalues --  -10.27266 -10.25777 -10.25371 -10.24488 -10.24099
 Alpha  occ. eigenvalues --  -10.23862 -10.23393 -10.23048 -10.23030 -10.22792
 Alpha  occ. eigenvalues --  -10.22118 -10.22048 -10.21746 -10.21261 -10.21158
 Alpha  occ. eigenvalues --  -10.21146 -10.21058  -1.18430  -1.15671  -1.13360
 Alpha  occ. eigenvalues --   -1.12681  -1.10535  -1.08932  -1.08889  -1.07891
 Alpha  occ. eigenvalues --   -1.07330  -1.07093  -1.06431  -1.05789  -1.05230
 Alpha  occ. eigenvalues --   -1.01207  -0.98718  -0.98713  -0.97314  -0.97272
 Alpha  occ. eigenvalues --   -0.96986  -0.96887  -0.96635  -0.95395  -0.92575
 Alpha  occ. eigenvalues --   -0.88372  -0.88066  -0.85907  -0.85542  -0.85210
 Alpha  occ. eigenvalues --   -0.84680  -0.84271  -0.83994  -0.82154  -0.79819
 Alpha  occ. eigenvalues --   -0.79410  -0.78718  -0.77396  -0.77054  -0.76321
 Alpha  occ. eigenvalues --   -0.76092  -0.73745  -0.73658  -0.73063  -0.72279
 Alpha  occ. eigenvalues --   -0.72073  -0.70976  -0.70666  -0.70625  -0.70274
 Alpha  occ. eigenvalues --   -0.69880  -0.68926  -0.68400  -0.66467  -0.65906
 Alpha  occ. eigenvalues --   -0.65771  -0.65357  -0.64850  -0.64354  -0.63627
 Alpha  occ. eigenvalues --   -0.63046  -0.62994  -0.62603  -0.61788  -0.61484
 Alpha  occ. eigenvalues --   -0.61151  -0.61070  -0.60699  -0.60409  -0.59439
 Alpha  occ. eigenvalues --   -0.58789  -0.58132  -0.57508  -0.57112  -0.56968
 Alpha  occ. eigenvalues --   -0.56744  -0.56476  -0.56275  -0.55623  -0.55161
 Alpha  occ. eigenvalues --   -0.54605  -0.54508  -0.54159  -0.53727  -0.53141
 Alpha  occ. eigenvalues --   -0.52973  -0.52721  -0.52426  -0.52211  -0.51976
 Alpha  occ. eigenvalues --   -0.51627  -0.51513  -0.51391  -0.51105  -0.51003
 Alpha  occ. eigenvalues --   -0.50919  -0.50886  -0.50578  -0.49981  -0.49540
 Alpha  occ. eigenvalues --   -0.49430  -0.49284  -0.48820  -0.48626  -0.48166
 Alpha  occ. eigenvalues --   -0.47865  -0.47641  -0.47489  -0.47278  -0.46879
 Alpha  occ. eigenvalues --   -0.46819  -0.46530  -0.46433  -0.46347  -0.46077
 Alpha  occ. eigenvalues --   -0.45801  -0.45068  -0.45009  -0.44941  -0.44740
 Alpha  occ. eigenvalues --   -0.44652  -0.44413  -0.44142  -0.43739  -0.43571
 Alpha  occ. eigenvalues --   -0.43462  -0.43173  -0.42865  -0.42796  -0.42552
 Alpha  occ. eigenvalues --   -0.42305  -0.42073  -0.41721  -0.41609  -0.41099
 Alpha  occ. eigenvalues --   -0.40942  -0.40596  -0.40052  -0.39714  -0.39399
 Alpha  occ. eigenvalues --   -0.39129  -0.38985  -0.38771  -0.38542  -0.38111
 Alpha  occ. eigenvalues --   -0.37706  -0.37174  -0.36901  -0.36521  -0.36433
 Alpha  occ. eigenvalues --   -0.36063  -0.36035  -0.35936  -0.35667  -0.35586
 Alpha  occ. eigenvalues --   -0.35029  -0.34566  -0.33088  -0.32834  -0.32645
 Alpha  occ. eigenvalues --   -0.32011  -0.31227  -0.30820  -0.30540  -0.29564
 Alpha  occ. eigenvalues --   -0.29241  -0.29071  -0.28228  -0.27785  -0.27427
 Alpha  occ. eigenvalues --   -0.26392  -0.24105
 Alpha virt. eigenvalues --   -0.12220  -0.11774  -0.11603  -0.08154  -0.07078
 Alpha virt. eigenvalues --   -0.05527  -0.04546  -0.04132  -0.03729  -0.03093
 Alpha virt. eigenvalues --   -0.02720  -0.02592  -0.02262  -0.01980  -0.01519

 Mulliken charges:
               1
     1  N   -0.757547
     2  H    0.433265
     3  H    0.409224
     4  H    0.403663
     5  C   -0.112508
     6  H    0.227842
     7  C    0.656622
     8  C   -0.393925
     9  H    0.188287
    10  H    0.210451
    11  O   -0.541984
    12  C    0.139191
    13  C   -0.235001
    14  H    0.140542
    15  C   -0.184386
    16  H    0.167020
    17  C   -0.118861
    18  H    0.164180
    19  C   -0.125477
    20  H    0.165490
    21  C   -0.121395
    22  H    0.166975
    23  N   -0.608657
    24  H    0.377676
    25  C   -0.063102
    26  H    0.201138
    27  C    0.634535
    28  C   -0.454670
    29  H    0.183642
    30  H    0.173138
    31  H    0.183976
    32  O   -0.558475
    33  N   -0.619066
    34  H    0.369406
    35  C   -0.046064
    36  H    0.187971
    37  C    0.619264
    38  C   -0.454830
    39  H    0.175337
    40  H    0.164022
    41  H    0.176640
    42  O   -0.547962
    43  N   -0.616555
    44  H    0.365856
    45  C   -0.041350
    46  H    0.183499
    47  C    0.623186
    48  C   -0.381304
    49  H    0.147331
    50  H    0.184732
    51  O   -0.545620
    52  C    0.166794
    53  C   -0.184628
    54  H    0.108132
    55  C   -0.202305
    56  H    0.142218
    57  C   -0.159785
    58  H    0.130716
    59  C   -0.199296
    60  H    0.136614
    61  O   -0.675504
    62  H    0.451401
    63  C    0.347896
    64  N   -0.609600
    65  H    0.353891
    66  C   -0.073934
    67  H    0.184587
    68  C    0.636552
    69  C   -0.248247
    70  H    0.146547
    71  H    0.145283
    72  O   -0.555592
    73  C   -0.087471
    74  H    0.136225
    75  C   -0.447230
    76  H    0.144788
    77  H    0.148848
    78  H    0.143849
    79  C   -0.443687
    80  H    0.141678
    81  H    0.146032
    82  H    0.144137
    83  N   -0.616639
    84  H    0.360513
    85  C   -0.054663
    86  H    0.175849
    87  C    0.609485
    88  C   -0.269064
    89  H    0.190233
    90  H    0.161334
    91  O   -0.557685
    92  C   -0.387329
    93  H    0.193473
    94  H    0.212177
    95  C    0.594541
    96  O   -0.489127
    97  O   -0.543743
    98  N   -0.619297
    99  H    0.359287
   100  C   -0.054795
   101  H    0.157616
   102  C    0.604869
   103  C   -0.279340
   104  H    0.147849
   105  H    0.164117
   106  O   -0.639205
   107  C   -0.275904
   108  H    0.133547
   109  H    0.181947
   110  C   -0.174085
   111  H    0.143437
   112  H    0.189963
   113  N   -0.603202
   114  H    0.420820
   115  N   -0.757495
   116  H    0.363766
   117  H    0.366586
   118  N   -0.778257
   119  H    0.352343
   120  H    0.415332
   121  C    0.758458
   122  O   -0.538844
   123  H    0.416863
 Sum of Mulliken charges =   1.00000

 Dipole moment (field-independent basis, Debye):
    X=            -21.8798    Y=             21.5199    Z=             19.9970  Tot=             36.6294
 Quadrupole moment (field-independent basis, Debye-Ang):
   XX=            282.3473   YY=           -123.7583   ZZ=           -259.1024
   XY=           -387.8069   XZ=           -191.6467   YZ=            131.5432

 Normal termination of Gaussian 16 at Mon Jul 18 02:04:28 2022.
