 Gaussian 16, Revision C.01,
 Gaussian 16:  ES64L-G16RevC.01  3-Jul-2019

 -------------------------------------------------------------------
 # B3LYP/6-31G* guess=read geom=check nosymm integral(ultrafinegrid)
 -------------------------------------------------------------------

 ------------------------------------------------------
 Candidate Structure: Conf:306 Charge calc in gas phase
 ------------------------------------------------------
 Structure from the checkpoint file:  "conf-306.chk"
 Charge =  1 Multiplicity = 1

                          Input orientation:
 ---------------------------------------------------------------------
 Center     Atomic      Atomic             Coordinates (Angstroms)
 Number     Number       Type             X           Y           Z
 ---------------------------------------------------------------------
      1          7           0       -8.488440    2.811079    8.575423
      2          1           0       -9.242354    2.652409    9.248085
      3          1           0       -7.731125    3.315672    9.045611
      4          1           0       -8.120312    1.880112    8.190569
      5          6           0       -8.939349    3.501789    7.299305
      6          1           0      -10.023130    3.627308    7.359840
      7          6           0       -8.565763    2.449580    6.214977
      8          6           0       -8.238991    4.871680    7.132905
      9          1           0       -7.191737    4.700168    6.862687
     10          1           0       -8.262222    5.378364    8.107701
     11          8           0       -8.037613    1.397281    6.602504
     12          6           0       -8.907982    5.764242    6.101269
     13          6           0       -8.287225    6.025648    4.870464
     14          1           0       -7.327739    5.566840    4.646720
     15          6           0      -10.148669    6.357146    6.380636
     16          1           0      -10.631705    6.184753    7.341159
     17          6           0       -8.904344    6.864500    3.937655
     18          1           0       -8.410774    7.069302    2.991957
     19          6           0      -10.762351    7.191229    5.447342
     20          1           0      -11.719312    7.649330    5.679120
     21          6           0      -10.140079    7.446261    4.222489
     22          1           0      -10.614903    8.101283    3.498076
     23          7           0       -8.852170    2.738576    4.943860
     24          1           0       -9.124825    3.696076    4.740519
     25          6           0       -8.177300    2.021858    3.859462
     26          1           0       -8.265508    0.952058    4.069417
     27          6           0       -6.668247    2.411737    3.886729
     28          6           0       -8.848761    2.355995    2.522600
     29          1           0       -8.368160    1.816534    1.702609
     30          1           0       -8.775168    3.427636    2.303817
     31          1           0       -9.905622    2.073931    2.543467
     32          8           0       -6.255171    3.323243    4.609668
     33          7           0       -5.896164    1.683664    3.067941
     34          1           0       -6.273420    0.962048    2.454309
     35          6           0       -4.475992    1.920330    2.842728
     36          1           0       -4.314314    2.996514    2.710279
     37          6           0       -4.151912    1.179099    1.526564
     38          6           0       -3.610946    1.416471    4.011353
     39          1           0       -2.548347    1.604448    3.825537
     40          1           0       -3.750837    0.340142    4.154168
     41          1           0       -3.899055    1.937691    4.927828
     42          8           0       -4.960647    0.382739    1.048014
     43          7           0       -2.952480    1.467694    0.979595
     44          1           0       -2.257294    1.987371    1.507540
     45          6           0       -2.397594    0.735149   -0.147688
     46          1           0       -2.991091   -0.174366   -0.275287
     47          6           0       -0.938966    0.400136    0.216613
     48          6           0       -2.419444    1.564622   -1.464423
     49          1           0       -1.743851    2.418787   -1.334738
     50          1           0       -1.985619    0.941131   -2.257316
     51          8           0       -0.332903    1.084475    1.043935
     52          6           0       -3.790634    2.056771   -1.871606
     53          6           0       -4.768775    1.173884   -2.355436
     54          1           0       -4.543483    0.113221   -2.438114
     55          6           0       -4.118961    3.412973   -1.787788
     56          1           0       -3.378660    4.122670   -1.425516
     57          6           0       -6.025732    1.623196   -2.742266
     58          1           0       -6.775720    0.938421   -3.125034
     59          6           0       -5.375428    3.882804   -2.174658
     60          1           0       -5.604494    4.945427   -2.111500
     61          8           0       -7.583703    3.376487   -3.049988
     62          1           0       -7.631851    4.344991   -3.034942
     63          6           0       -6.333105    2.986288   -2.655030
     64          7           0       -0.404122   -0.644419   -0.452945
     65          1           0       -0.911908   -1.053671   -1.233766
     66          6           0        1.022363   -0.941439   -0.494179
     67          1           0        1.561558   -0.055805   -0.144455
     68          6           0        1.351953   -1.217508   -1.976543
     69          6           0        1.399075   -2.172131    0.365244
     70          1           0        0.828828   -3.029115   -0.017634
     71          1           0        2.459685   -2.404286    0.191770
     72          8           0        0.457906   -1.500805   -2.775092
     73          6           0        1.159646   -2.031135    1.880981
     74          1           0        0.110062   -1.742133    2.029904
     75          6           0        1.376828   -3.390315    2.564303
     76          1           0        2.413355   -3.731497    2.443945
     77          1           0        1.174047   -3.325118    3.639419
     78          1           0        0.721238   -4.162482    2.144605
     79          6           0        2.044768   -0.948925    2.517117
     80          1           0        3.108962   -1.155548    2.338963
     81          1           0        1.808358    0.046260    2.129269
     82          1           0        1.894794   -0.920122    3.602752
     83          7           0        2.660799   -1.143755   -2.312177
     84          1           0        3.368461   -0.993581   -1.601042
     85          6           0        3.185243   -1.601729   -3.596055
     86          1           0        2.436765   -2.261896   -4.042874
     87          6           0        4.479119   -2.373666   -3.314056
     88          6           0        3.499819   -0.435834   -4.559245
     89          1           0        4.214890    0.240495   -4.078310
     90          1           0        3.998983   -0.843635   -5.446369
     91          8           0        5.219544   -1.978989   -2.363103
     92          6           0        2.262611    0.353529   -4.988136
     93          1           0        1.681482    0.681742   -4.117260
     94          1           0        1.577104   -0.257744   -5.585030
     95          6           0        2.633523    1.590903   -5.778047
     96          8           0        3.743235    2.070548   -5.865500
     97          8           0        1.551277    2.138453   -6.380771
     98          7           0        4.759367   -3.380544   -4.118306
     99          1           0        4.248230   -3.589946   -5.002525
    100          6           0        6.050844   -4.049912   -4.218255
    101          1           0        6.834260   -3.299133   -4.097854
    102          6           0        6.160118   -4.583693   -5.703578
    103          6           0        6.235829   -5.192436   -3.191446
    104          1           0        5.840994   -6.117485   -3.623059
    105          1           0        5.639421   -4.993970   -2.288144
    106          8           0        7.262462   -5.092339   -5.974503
    107          6           0        7.714842   -5.397969   -2.812550
    108          1           0        8.314387   -5.234665   -3.715389
    109          1           0        7.890989   -6.434486   -2.499531
    110          6           0        8.158811   -4.503771   -1.641637
    111          1           0        9.234450   -4.576805   -1.445245
    112          1           0        7.663240   -4.823475   -0.719240
    113          7           0        7.796793   -3.085939   -1.807740
    114          1           0        6.790444   -2.868445   -1.773676
    115          7           0        9.782151   -2.382351   -2.830304
    116          1           0       10.238369   -1.723655   -3.444799
    117          1           0       10.135277   -3.327235   -2.870197
    118          7           0        7.916134   -0.984346   -2.726391
    119          1           0        8.337267   -0.353082   -3.392766
    120          1           0        6.897451   -0.954399   -2.635683
    121          6           0        8.496192   -2.174927   -2.475974
    122          8           0        5.115443   -4.415269   -6.385281
    123          1           0        1.874111    2.927862   -6.855419
 ---------------------------------------------------------------------

 SCF Done:  E(RB3LYP) =  -2974.00755339     A.U. after    2 cycles

 Alpha  occ. eigenvalues --  -19.27091 -19.23625 -19.23112 -19.21067 -19.19359
 Alpha  occ. eigenvalues --  -19.18640 -19.18446 -19.18082 -19.17964 -19.07755
 Alpha  occ. eigenvalues --  -19.06708 -14.59724 -14.49142 -14.46788 -14.45345
 Alpha  occ. eigenvalues --  -14.44902 -14.44530 -14.43061 -14.42217 -14.42109
 Alpha  occ. eigenvalues --  -14.39960 -10.43535 -10.42168 -10.40818 -10.38169
 Alpha  occ. eigenvalues --  -10.36415 -10.36277 -10.35406 -10.35027 -10.34588
 Alpha  occ. eigenvalues --  -10.34360 -10.33830 -10.31652 -10.31302 -10.30157
 Alpha  occ. eigenvalues --  -10.30053 -10.29989 -10.29903 -10.29478 -10.29289
 Alpha  occ. eigenvalues --  -10.29283 -10.29162 -10.29053 -10.29010 -10.28637
 Alpha  occ. eigenvalues --  -10.25903 -10.25723 -10.25596 -10.24577 -10.24532
 Alpha  occ. eigenvalues --  -10.24478 -10.24442 -10.24381 -10.24290 -10.24209
 Alpha  occ. eigenvalues --  -10.24073 -10.23842 -10.23612 -10.23323 -10.22348
 Alpha  occ. eigenvalues --  -10.22208 -10.21808  -1.19527  -1.14537  -1.13712
 Alpha  occ. eigenvalues --   -1.12704  -1.11289  -1.11104  -1.10915  -1.10381
 Alpha  occ. eigenvalues --   -1.09668  -1.08797  -1.06012  -1.05529  -1.01200
 Alpha  occ. eigenvalues --   -1.00993  -1.00045  -0.99744  -0.99060  -0.98928
 Alpha  occ. eigenvalues --   -0.98454  -0.96827  -0.96437  -0.92826  -0.92244
 Alpha  occ. eigenvalues --   -0.90637  -0.88618  -0.86947  -0.85907  -0.85306
 Alpha  occ. eigenvalues --   -0.85117  -0.84811  -0.84471  -0.83401  -0.81285
 Alpha  occ. eigenvalues --   -0.79985  -0.79832  -0.79721  -0.78386  -0.77240
 Alpha  occ. eigenvalues --   -0.76032  -0.74261  -0.73980  -0.73734  -0.72948
 Alpha  occ. eigenvalues --   -0.72905  -0.72229  -0.71535  -0.71098  -0.70922
 Alpha  occ. eigenvalues --   -0.70695  -0.69248  -0.68434  -0.67794  -0.67723
 Alpha  occ. eigenvalues --   -0.66962  -0.66289  -0.65703  -0.65351  -0.64803
 Alpha  occ. eigenvalues --   -0.64308  -0.63942  -0.63457  -0.63116  -0.62985
 Alpha  occ. eigenvalues --   -0.62300  -0.61599  -0.61468  -0.61356  -0.60029
 Alpha  occ. eigenvalues --   -0.59591  -0.59286  -0.58875  -0.58502  -0.58436
 Alpha  occ. eigenvalues --   -0.57690  -0.56259  -0.56194  -0.55924  -0.55249
 Alpha  occ. eigenvalues --   -0.54907  -0.54612  -0.54414  -0.53938  -0.53867
 Alpha  occ. eigenvalues --   -0.53737  -0.53440  -0.53173  -0.52841  -0.52588
 Alpha  occ. eigenvalues --   -0.52407  -0.52250  -0.51886  -0.51828  -0.51768
 Alpha  occ. eigenvalues --   -0.51719  -0.51470  -0.51154  -0.50546  -0.50286
 Alpha  occ. eigenvalues --   -0.50105  -0.49651  -0.49483  -0.49453  -0.49124
 Alpha  occ. eigenvalues --   -0.49013  -0.48874  -0.48526  -0.47963  -0.47771
 Alpha  occ. eigenvalues --   -0.47607  -0.47437  -0.47188  -0.46746  -0.46380
 Alpha  occ. eigenvalues --   -0.46300  -0.46160  -0.46120  -0.45761  -0.45745
 Alpha  occ. eigenvalues --   -0.45298  -0.44982  -0.44857  -0.44683  -0.44478
 Alpha  occ. eigenvalues --   -0.44353  -0.43869  -0.43776  -0.43324  -0.43064
 Alpha  occ. eigenvalues --   -0.42974  -0.42826  -0.41755  -0.41704  -0.41697
 Alpha  occ. eigenvalues --   -0.41455  -0.41298  -0.40710  -0.40490  -0.39719
 Alpha  occ. eigenvalues --   -0.39596  -0.39560  -0.39335  -0.38917  -0.38149
 Alpha  occ. eigenvalues --   -0.37993  -0.37953  -0.37699  -0.37542  -0.37473
 Alpha  occ. eigenvalues --   -0.37084  -0.35913  -0.35559  -0.35348  -0.35249
 Alpha  occ. eigenvalues --   -0.34929  -0.34631  -0.34133  -0.33697  -0.33398
 Alpha  occ. eigenvalues --   -0.33024  -0.32716  -0.31905  -0.31729  -0.31292
 Alpha  occ. eigenvalues --   -0.31063  -0.30821  -0.30256  -0.26985  -0.22805
 Alpha  occ. eigenvalues --   -0.22677  -0.21019
 Alpha virt. eigenvalues --   -0.12927  -0.11381  -0.10875  -0.10441  -0.07098
 Alpha virt. eigenvalues --   -0.06926  -0.06091  -0.05607  -0.05163  -0.04594
 Alpha virt. eigenvalues --   -0.04482  -0.03601  -0.03431  -0.03029  -0.02913

 Mulliken charges:
               1
     1  N   -0.765052
     2  H    0.414255
     3  H    0.414617
     4  H    0.438713
     5  C   -0.112540
     6  H    0.222872
     7  C    0.660835
     8  C   -0.385320
     9  H    0.219128
    10  H    0.176602
    11  O   -0.536934
    12  C    0.116939
    13  C   -0.217229
    14  H    0.191203
    15  C   -0.176808
    16  H    0.129216
    17  C   -0.129377
    18  H    0.159090
    19  C   -0.124748
    20  H    0.161386
    21  C   -0.121442
    22  H    0.163042
    23  N   -0.574163
    24  H    0.364676
    25  C   -0.085960
    26  H    0.205096
    27  C    0.644687
    28  C   -0.476795
    29  H    0.196570
    30  H    0.166055
    31  H    0.182968
    32  O   -0.558564
    33  N   -0.613028
    34  H    0.366932
    35  C   -0.040814
    36  H    0.179398
    37  C    0.623339
    38  C   -0.453566
    39  H    0.167785
    40  H    0.166766
    41  H    0.177363
    42  O   -0.535308
    43  N   -0.604036
    44  H    0.352830
    45  C   -0.069543
    46  H    0.188523
    47  C    0.621801
    48  C   -0.371611
    49  H    0.156648
    50  H    0.170529
    51  O   -0.543900
    52  C    0.188694
    53  C   -0.168411
    54  H    0.133352
    55  C   -0.197926
    56  H    0.125629
    57  C   -0.158428
    58  H    0.147240
    59  C   -0.196599
    60  H    0.117626
    61  O   -0.641190
    62  H    0.407494
    63  C    0.346703
    64  N   -0.597205
    65  H    0.357321
    66  C   -0.080154
    67  H    0.180240
    68  C    0.622220
    69  C   -0.253661
    70  H    0.148691
    71  H    0.136147
    72  O   -0.540782
    73  C   -0.065943
    74  H    0.134211
    75  C   -0.444549
    76  H    0.141235
    77  H    0.144786
    78  H    0.145132
    79  C   -0.462934
    80  H    0.130218
    81  H    0.174261
    82  H    0.142698
    83  N   -0.606679
    84  H    0.346869
    85  C   -0.057597
    86  H    0.193429
    87  C    0.615107
    88  C   -0.261955
    89  H    0.154981
    90  H    0.180760
    91  O   -0.635659
    92  C   -0.356241
    93  H    0.186493
    94  H    0.194516
    95  C    0.581063
    96  O   -0.465676
    97  O   -0.565741
    98  N   -0.573864
    99  H    0.368907
   100  C   -0.082455
   101  H    0.117200
   102  C    0.585398
   103  C   -0.270795
   104  H    0.178880
   105  H    0.121394
   106  O   -0.582856
   107  C   -0.274347
   108  H    0.189024
   109  H    0.154201
   110  C   -0.188210
   111  H    0.156314
   112  H    0.180423
   113  N   -0.585060
   114  H    0.403851
   115  N   -0.751820
   116  H    0.369299
   117  H    0.384645
   118  N   -0.767378
   119  H    0.358549
   120  H    0.402915
   121  C    0.769017
   122  O   -0.597740
   123  H    0.411593
 Sum of Mulliken charges =   1.00000

 Dipole moment (field-independent basis, Debye):
    X=            -27.4178    Y=             20.6519    Z=             35.3317  Tot=             49.2602
 Quadrupole moment (field-independent basis, Debye-Ang):
   XX=             94.1813   YY=           -308.8053   ZZ=           -197.8633
   XY=           -147.1884   XZ=           -234.7107   YZ=             31.2025

 Normal termination of Gaussian 16 at Mon Jul 18 02:04:06 2022.
