 Gaussian 16, Revision C.01,
 Gaussian 16:  ES64L-G16RevC.01  3-Jul-2019

 -------------------------------------------------------------------
 # B3LYP/6-31G* guess=read geom=check nosymm integral(ultrafinegrid)
 -------------------------------------------------------------------

 ------------------------------------------------------
 Candidate Structure: Conf:950 Charge calc in gas phase
 ------------------------------------------------------
 Structure from the checkpoint file:  "conf-950.chk"
 Charge =  1 Multiplicity = 1

                          Input orientation:
 ---------------------------------------------------------------------
 Center     Atomic      Atomic             Coordinates (Angstroms)
 Number     Number       Type             X           Y           Z
 ---------------------------------------------------------------------
      1          7           0      -10.326561   -0.899042    5.849230
      2          1           0      -11.308305   -1.177811    5.791172
      3          1           0      -10.126068   -0.532995    6.794498
      4          1           0       -9.672473   -1.712424    5.655615
      5          6           0       -9.904287    0.109870    4.805446
      6          1           0      -10.620824    0.035655    3.981421
      7          6           0       -8.546389   -0.474570    4.310429
      8          6           0       -9.903418    1.545588    5.380262
      9          1           0      -10.946441    1.847097    5.534096
     10          1           0       -9.511596    2.216548    4.608476
     11          8           0       -8.267677   -1.634090    4.651714
     12          6           0       -9.121589    1.682100    6.671309
     13          6           0       -9.773919    1.517700    7.905858
     14          1           0      -10.856665    1.394547    7.935709
     15          6           0       -7.742343    1.940070    6.662330
     16          1           0       -7.226619    2.105286    5.719603
     17          6           0       -9.059854    1.587016    9.106033
     18          1           0       -9.580262    1.470638   10.052053
     19          6           0       -7.034384    2.016377    7.861569
     20          1           0       -5.969658    2.229491    7.842819
     21          6           0       -7.687265    1.831325    9.083295
     22          1           0       -7.130284    1.894481   10.013183
     23          7           0       -7.815089    0.293047    3.513524
     24          1           0       -7.999533    1.290745    3.391366
     25          6           0       -6.489733   -0.071985    3.009667
     26          1           0       -5.959911   -0.616968    3.799478
     27          6           0       -5.790645    1.289723    2.769278
     28          6           0       -6.574297   -0.949036    1.751454
     29          1           0       -5.576689   -1.229230    1.400025
     30          1           0       -7.088611   -0.421723    0.941967
     31          1           0       -7.118821   -1.869527    1.979146
     32          8           0       -6.405747    2.343682    2.985069
     33          7           0       -4.528860    1.229086    2.331325
     34          1           0       -4.079298    0.348692    2.082387
     35          6           0       -3.750245    2.395335    1.926939
     36          1           0       -4.414678    3.088112    1.398388
     37          6           0       -2.683198    1.844457    0.956347
     38          6           0       -3.118717    3.118169    3.128843
     39          1           0       -2.556363    3.999532    2.804302
     40          1           0       -2.436150    2.450898    3.664823
     41          1           0       -3.907156    3.448232    3.810648
     42          8           0       -2.479599    0.623817    0.895329
     43          7           0       -2.011603    2.752745    0.233490
     44          1           0       -2.206106    3.740314    0.364824
     45          6           0       -1.057921    2.429660   -0.836758
     46          1           0       -1.401639    1.505991   -1.317375
     47          6           0        0.368281    2.107027   -0.322277
     48          6           0       -1.069376    3.554610   -1.897372
     49          1           0       -0.216930    3.373176   -2.555550
     50          1           0       -1.976248    3.426618   -2.498145
     51          8           0        1.371273    2.603004   -0.839952
     52          6           0       -1.031408    4.968003   -1.345967
     53          6           0       -2.209166    5.729139   -1.255827
     54          1           0       -3.145166    5.308221   -1.619426
     55          6           0        0.162734    5.560022   -0.904832
     56          1           0        1.085128    4.991407   -0.963137
     57          6           0       -2.209530    7.025689   -0.743332
     58          1           0       -3.121395    7.612084   -0.689333
     59          6           0        0.177565    6.856456   -0.395503
     60          1           0        1.116581    7.298806   -0.066634
     61          8           0       -1.056317    8.868041    0.182780
     62          1           0       -0.156967    9.158200    0.401729
     63          6           0       -1.008858    7.595310   -0.310454
     64          7           0        0.422045    1.185861    0.675321
     65          1           0       -0.433768    0.664120    0.860851
     66          6           0        1.687287    0.520695    1.036806
     67          1           0        2.477730    1.254134    0.864268
     68          6           0        1.843125   -0.662689    0.048189
     69          6           0        1.679349    0.049350    2.491417
     70          1           0        0.927423   -0.743287    2.588668
     71          1           0        2.645002   -0.437899    2.684704
     72          8           0        1.481609   -1.799499    0.334650
     73          6           0        1.438086    1.144974    3.546583
     74          1           0        0.474114    1.624278    3.319344
     75          6           0        1.333690    0.513870    4.943323
     76          1           0        2.275476    0.025076    5.224566
     77          1           0        1.114076    1.270663    5.706141
     78          1           0        0.543554   -0.245907    4.981851
     79          6           0        2.518743    2.236811    3.523595
     80          1           0        3.513696    1.806564    3.699126
     81          1           0        2.547414    2.768078    2.566135
     82          1           0        2.338542    2.981788    4.307859
     83          7           0        2.280622   -0.289169   -1.182601
     84          1           0        2.459178    0.698434   -1.324182
     85          6           0        1.975831   -1.089911   -2.362962
     86          1           0        0.999585   -1.556350   -2.192493
     87          6           0        3.019686   -2.193176   -2.630083
     88          6           0        1.905145   -0.165340   -3.608778
     89          1           0        1.607047    0.836935   -3.280896
     90          1           0        2.907979   -0.077920   -4.041023
     91          8           0        4.223640   -2.007700   -2.424864
     92          6           0        0.916947   -0.633510   -4.684372
     93          1           0        0.993205   -1.710151   -4.909197
     94          1           0        1.117332   -0.127139   -5.637394
     95          6           0       -0.516671   -0.331005   -4.315955
     96          8           0       -0.905253    0.170500   -3.274058
     97          8           0       -1.371564   -0.670868   -5.302683
     98          7           0        2.480911   -3.297297   -3.186088
     99          1           0        1.489237   -3.287832   -3.460960
    100          6           0        3.148946   -4.204730   -4.112959
    101          1           0        3.910027   -3.645800   -4.676624
    102          6           0        2.038288   -4.681758   -5.151757
    103          6           0        3.823362   -5.404209   -3.444566
    104          1           0        4.004483   -6.137810   -4.237983
    105          1           0        3.120197   -5.851742   -2.728050
    106          8           0        2.387049   -5.605406   -5.903569
    107          6           0        5.124263   -5.016740   -2.734647
    108          1           0        4.933359   -4.174658   -2.057490
    109          1           0        5.851377   -4.658099   -3.475799
    110          6           0        5.741783   -6.178357   -1.963124
    111          1           0        6.039076   -6.986678   -2.642211
    112          1           0        5.033853   -6.577418   -1.225690
    113          7           0        6.953703   -5.697349   -1.255480
    114          1           0        7.002380   -4.692971   -1.121438
    115          7           0        7.832646   -7.780403   -0.734260
    116          1           0        8.661439   -8.357498   -0.714936
    117          1           0        6.972375   -8.225202   -1.021513
    118          7           0        9.096733   -5.877348   -0.368131
    119          1           0        9.684079   -6.362066    0.295577
    120          1           0        9.236545   -4.880400   -0.453064
    121          6           0        7.943285   -6.440178   -0.790550
    122          8           0        0.944970   -4.048188   -5.073354
    123          1           0       -2.266943   -0.469618   -4.973166
 ---------------------------------------------------------------------

 SCF Done:  E(RB3LYP) =  -2973.97115650     A.U. after    2 cycles

 Alpha  occ. eigenvalues --  -19.26324 -19.22491 -19.22054 -19.21624 -19.20047
 Alpha  occ. eigenvalues --  -19.16740 -19.16508 -19.13623 -19.11067 -19.04851
 Alpha  occ. eigenvalues --  -19.03859 -14.58916 -14.50149 -14.50143 -14.49643
 Alpha  occ. eigenvalues --  -14.48817 -14.45216 -14.43742 -14.40157 -14.37331
 Alpha  occ. eigenvalues --  -14.33597 -10.46210 -10.43151 -10.40527 -10.38969
 Alpha  occ. eigenvalues --  -10.36906 -10.34481 -10.34370 -10.33989 -10.33596
 Alpha  occ. eigenvalues --  -10.32133 -10.31950 -10.31312 -10.30803 -10.30535
 Alpha  occ. eigenvalues --  -10.30051 -10.30013 -10.29761 -10.29698 -10.29608
 Alpha  occ. eigenvalues --  -10.28826 -10.27959 -10.27920 -10.26486 -10.26225
 Alpha  occ. eigenvalues --  -10.24155 -10.24111 -10.23938 -10.23914 -10.23636
 Alpha  occ. eigenvalues --  -10.23352 -10.23340 -10.23147 -10.22824 -10.22793
 Alpha  occ. eigenvalues --  -10.21986 -10.21689 -10.21377 -10.21266 -10.21134
 Alpha  occ. eigenvalues --  -10.20122 -10.19324  -1.18737  -1.14745  -1.13918
 Alpha  occ. eigenvalues --   -1.13009  -1.12731  -1.11775  -1.10544  -1.08315
 Alpha  occ. eigenvalues --   -1.05591  -1.05348  -1.03663  -1.03523  -1.03107
 Alpha  occ. eigenvalues --   -1.02387  -1.01905  -1.00118  -0.97742  -0.97277
 Alpha  occ. eigenvalues --   -0.96564  -0.93899  -0.92874  -0.91011  -0.90043
 Alpha  occ. eigenvalues --   -0.88866  -0.88714  -0.86356  -0.85681  -0.85520
 Alpha  occ. eigenvalues --   -0.85209  -0.84697  -0.82914  -0.81825  -0.79699
 Alpha  occ. eigenvalues --   -0.79430  -0.79379  -0.78516  -0.77335  -0.76701
 Alpha  occ. eigenvalues --   -0.75906  -0.74479  -0.74306  -0.73930  -0.72568
 Alpha  occ. eigenvalues --   -0.72474  -0.72356  -0.71247  -0.70871  -0.70323
 Alpha  occ. eigenvalues --   -0.69891  -0.69316  -0.68646  -0.67885  -0.67644
 Alpha  occ. eigenvalues --   -0.66829  -0.66550  -0.65664  -0.65461  -0.63808
 Alpha  occ. eigenvalues --   -0.63355  -0.63301  -0.63125  -0.62640  -0.61716
 Alpha  occ. eigenvalues --   -0.61195  -0.60611  -0.60228  -0.60141  -0.59791
 Alpha  occ. eigenvalues --   -0.59252  -0.59025  -0.58134  -0.57839  -0.57124
 Alpha  occ. eigenvalues --   -0.56926  -0.56877  -0.56218  -0.56185  -0.55186
 Alpha  occ. eigenvalues --   -0.54995  -0.54941  -0.54413  -0.53841  -0.53104
 Alpha  occ. eigenvalues --   -0.53015  -0.52807  -0.52726  -0.52527  -0.52108
 Alpha  occ. eigenvalues --   -0.51834  -0.51553  -0.51330  -0.51210  -0.51172
 Alpha  occ. eigenvalues --   -0.50451  -0.50263  -0.50121  -0.49705  -0.49653
 Alpha  occ. eigenvalues --   -0.48468  -0.48326  -0.48140  -0.47997  -0.47490
 Alpha  occ. eigenvalues --   -0.47241  -0.47187  -0.47093  -0.47011  -0.46847
 Alpha  occ. eigenvalues --   -0.46419  -0.46208  -0.45773  -0.45559  -0.45269
 Alpha  occ. eigenvalues --   -0.45224  -0.45176  -0.45028  -0.44764  -0.44558
 Alpha  occ. eigenvalues --   -0.44210  -0.43646  -0.43285  -0.43161  -0.42713
 Alpha  occ. eigenvalues --   -0.42490  -0.42236  -0.41703  -0.41589  -0.41448
 Alpha  occ. eigenvalues --   -0.41182  -0.41085  -0.40885  -0.40677  -0.40264
 Alpha  occ. eigenvalues --   -0.39904  -0.39114  -0.38915  -0.38868  -0.38541
 Alpha  occ. eigenvalues --   -0.38411  -0.38031  -0.37405  -0.37225  -0.36969
 Alpha  occ. eigenvalues --   -0.36673  -0.36492  -0.36337  -0.36325  -0.36186
 Alpha  occ. eigenvalues --   -0.35917  -0.35810  -0.35502  -0.35135  -0.34615
 Alpha  occ. eigenvalues --   -0.34284  -0.34166  -0.34004  -0.33943  -0.32067
 Alpha  occ. eigenvalues --   -0.31419  -0.30080  -0.30016  -0.29434  -0.27831
 Alpha  occ. eigenvalues --   -0.26634  -0.26501  -0.25244  -0.24298  -0.20046
 Alpha  occ. eigenvalues --   -0.19617  -0.18110
 Alpha virt. eigenvalues --   -0.12506  -0.12061  -0.11873  -0.10327  -0.08423
 Alpha virt. eigenvalues --   -0.07681  -0.06339  -0.05966  -0.05084  -0.04033
 Alpha virt. eigenvalues --   -0.03717  -0.03570  -0.02949  -0.02289  -0.01429

 Mulliken charges:
               1
     1  N   -0.757573
     2  H    0.409951
     3  H    0.403859
     4  H    0.433732
     5  C   -0.112478
     6  H    0.228505
     7  C    0.657696
     8  C   -0.393925
     9  H    0.189182
    10  H    0.209565
    11  O   -0.540736
    12  C    0.139617
    13  C   -0.234733
    14  H    0.141446
    15  C   -0.183387
    16  H    0.164371
    17  C   -0.118740
    18  H    0.164921
    19  C   -0.124789
    20  H    0.164974
    21  C   -0.121318
    22  H    0.167283
    23  N   -0.610010
    24  H    0.377330
    25  C   -0.062195
    26  H    0.202601
    27  C    0.632295
    28  C   -0.456720
    29  H    0.187001
    30  H    0.172497
    31  H    0.186934
    32  O   -0.556549
    33  N   -0.617942
    34  H    0.373107
    35  C   -0.047582
    36  H    0.186840
    37  C    0.629738
    38  C   -0.452843
    39  H    0.170051
    40  H    0.171326
    41  H    0.178670
    42  O   -0.554526
    43  N   -0.609835
    44  H    0.351039
    45  C   -0.091998
    46  H    0.240202
    47  C    0.641099
    48  C   -0.364517
    49  H    0.197549
    50  H    0.153172
    51  O   -0.545661
    52  C    0.113418
    53  C   -0.215823
    54  H    0.126766
    55  C   -0.189088
    56  H    0.178832
    57  C   -0.157158
    58  H    0.143525
    59  C   -0.193561
    60  H    0.129031
    61  O   -0.639107
    62  H    0.411777
    63  C    0.351918
    64  N   -0.616278
    65  H    0.374577
    66  C   -0.082816
    67  H    0.174782
    68  C    0.615892
    69  C   -0.265714
    70  H    0.155011
    71  H    0.141672
    72  O   -0.531564
    73  C   -0.068024
    74  H    0.116700
    75  C   -0.441425
    76  H    0.143212
    77  H    0.135424
    78  H    0.135574
    79  C   -0.452285
    80  H    0.140342
    81  H    0.156283
    82  H    0.138416
    83  N   -0.605086
    84  H    0.353621
    85  C   -0.028849
    86  H    0.168332
    87  C    0.609031
    88  C   -0.312009
    89  H    0.154390
    90  H    0.165582
    91  O   -0.575408
    92  C   -0.393538
    93  H    0.250191
    94  H    0.177040
    95  C    0.587301
    96  O   -0.499559
    97  O   -0.545121
    98  N   -0.592329
    99  H    0.348725
   100  C   -0.071870
   101  H    0.135127
   102  C    0.578536
   103  C   -0.257787
   104  H    0.169885
   105  H    0.128843
   106  O   -0.582600
   107  C   -0.320505
   108  H    0.194315
   109  H    0.150292
   110  C   -0.152165
   111  H    0.173993
   112  H    0.184660
   113  N   -0.593084
   114  H    0.374873
   115  N   -0.753507
   116  H    0.379597
   117  H    0.394337
   118  N   -0.760497
   119  H    0.378229
   120  H    0.382125
   121  C    0.813270
   122  O   -0.608854
   123  H    0.401671
 Sum of Mulliken charges =   1.00000

 Dipole moment (field-independent basis, Debye):
    X=            -16.7160    Y=             -5.2397    Z=             35.2355  Tot=             39.3500
 Quadrupole moment (field-independent basis, Debye-Ang):
   XX=            271.7430   YY=           -248.5844   ZZ=           -292.2643
   XY=           -156.6557   XZ=           -205.2671   YZ=            -56.2462

 Normal termination of Gaussian 16 at Mon Jul 18 02:04:06 2022.
