 Gaussian 16, Revision C.01,
 Gaussian 16:  ES64L-G16RevC.01  3-Jul-2019

 -------------------------------------------------------------------
 # B3LYP/6-31G* guess=read geom=check nosymm integral(ultrafinegrid)
 -------------------------------------------------------------------

 ------------------------------------------------------
 Candidate Structure: Conf:746 Charge calc in gas phase
 ------------------------------------------------------
 Structure from the checkpoint file:  "conf-746.chk"
 Charge =  1 Multiplicity = 1

                          Input orientation:
 ---------------------------------------------------------------------
 Center     Atomic      Atomic             Coordinates (Angstroms)
 Number     Number       Type             X           Y           Z
 ---------------------------------------------------------------------
      1          7           0      -11.356151    5.266145    5.619148
      2          1           0      -12.212970    5.767401    5.374865
      3          1           0      -11.078192    5.507471    6.584911
      4          1           0      -11.482629    4.215098    5.556229
      5          6           0      -10.201581    5.513046    4.674692
      6          1           0      -10.631412    5.854467    3.727750
      7          6           0       -9.641448    4.075505    4.451499
      8          6           0       -9.237480    6.584086    5.236272
      9          1           0       -9.744868    7.554663    5.181983
     10          1           0       -8.382963    6.658156    4.555317
     11          8           0      -10.338932    3.125621    4.837942
     12          6           0       -8.783577    6.307815    6.655592
     13          6           0       -9.509057    6.835842    7.738030
     14          1           0      -10.333633    7.524885    7.554592
     15          6           0       -7.663832    5.503804    6.917574
     16          1           0       -7.069266    5.115613    6.094274
     17          6           0       -9.137342    6.548913    9.055087
     18          1           0       -9.699968    6.974903    9.880475
     19          6           0       -7.290994    5.226026    8.232512
     20          1           0       -6.414556    4.613761    8.423312
     21          6           0       -8.029918    5.738531    9.302309
     22          1           0       -7.732411    5.520379   10.323478
     23          7           0       -8.483948    3.972762    3.810995
     24          1           0       -7.867539    4.773786    3.660458
     25          6           0       -7.785540    2.707868    3.575407
     26          1           0       -7.932896    2.065771    4.451532
     27          6           0       -6.292808    3.112944    3.483277
     28          6           0       -8.305678    1.989153    2.321668
     29          1           0       -7.787726    1.036820    2.172761
     30          1           0       -8.157727    2.604872    1.429019
     31          1           0       -9.372235    1.775807    2.434192
     32          8           0       -5.973302    4.305964    3.582763
     33          7           0       -5.422856    2.114313    3.298396
     34          1           0       -5.716373    1.150439    3.145150
     35          6           0       -3.992852    2.312466    3.087347
     36          1           0       -3.855808    3.174790    2.424756
     37          6           0       -3.508722    1.027444    2.381210
     38          6           0       -3.239984    2.564431    4.404816
     39          1           0       -2.172504    2.721668    4.220277
     40          1           0       -3.352693    1.711285    5.081635
     41          1           0       -3.639244    3.460104    4.887957
     42          8           0       -4.228337    0.025128    2.343882
     43          7           0       -2.280239    1.092681    1.839388
     44          1           0       -1.687497    1.912563    1.940255
     45          6           0       -1.619981   -0.041567    1.212225
     46          1           0       -1.810373   -0.931869    1.824584
     47          6           0       -0.116298    0.291493    1.237662
     48          6           0       -2.154549   -0.330141   -0.225005
     49          1           0       -1.785294   -1.317526   -0.530744
     50          1           0       -3.240795   -0.432444   -0.124804
     51          8           0        0.276962    1.404430    1.581722
     52          6           0       -1.783100    0.696681   -1.272015
     53          6           0       -2.402517    1.956560   -1.328866
     54          1           0       -3.203244    2.191376   -0.632039
     55          6           0       -0.790254    0.421784   -2.220742
     56          1           0       -0.312671   -0.556106   -2.230066
     57          6           0       -2.016886    2.917028   -2.257101
     58          1           0       -2.492169    3.892618   -2.288219
     59          6           0       -0.402619    1.367980   -3.168285
     60          1           0        0.350410    1.127702   -3.912091
     61          8           0       -0.642047    3.613307   -4.046659
     62          1           0        0.165265    3.356403   -4.536434
     63          6           0       -0.994580    2.638876   -3.177730
     64          7           0        0.723047   -0.714800    0.873699
     65          1           0        0.337908   -1.563569    0.476894
     66          6           0        2.142770   -0.478007    0.612954
     67          1           0        2.296658    0.594006    0.747971
     68          6           0        2.418584   -0.874820   -0.841817
     69          6           0        3.072961   -1.267883    1.556219
     70          1           0        2.867137   -2.338804    1.420649
     71          1           0        4.107085   -1.104274    1.219730
     72          8           0        2.040060   -1.992531   -1.257397
     73          6           0        2.954392   -0.914370    3.051631
     74          1           0        1.905561   -1.061190    3.346704
     75          6           0        3.817029   -1.880193    3.878777
     76          1           0        4.879514   -1.776976    3.623843
     77          1           0        3.713412   -1.677257    4.950331
     78          1           0        3.530634   -2.925548    3.708428
     79          6           0        3.333008    0.545809    3.344309
     80          1           0        4.352594    0.764827    3.000781
     81          1           0        2.645696    1.251398    2.866828
     82          1           0        3.301894    0.739301    4.422547
     83          7           0        3.038313    0.041655   -1.592227
     84          1           0        3.394985    0.861220   -1.117186
     85          6           0        3.498465   -0.141826   -2.969126
     86          1           0        2.796027   -0.828197   -3.452451
     87          6           0        4.925579   -0.760251   -2.942569
     88          6           0        3.435206    1.230748   -3.684028
     89          1           0        2.533189    1.736818   -3.326260
     90          1           0        4.293363    1.840362   -3.371885
     91          8           0        5.595811   -0.683971   -1.914253
     92          6           0        3.376984    1.158578   -5.220082
     93          1           0        2.697032    0.349386   -5.528507
     94          1           0        4.340782    0.930961   -5.688787
     95          6           0        2.776792    2.418645   -5.804864
     96          8           0        1.825130    3.027848   -5.338323
     97          8           0        3.377877    2.803459   -6.935579
     98          7           0        5.305113   -1.394628   -4.086444
     99          1           0        4.852653   -1.102677   -4.989036
    100          6           0        6.731662   -1.492597   -4.483009
    101          1           0        7.324425   -0.871910   -3.804187
    102          6           0        6.803463   -0.900033   -5.952066
    103          6           0        7.281597   -2.924401   -4.474507
    104          1           0        8.323008   -2.851391   -4.796647
    105          1           0        6.770324   -3.501292   -5.258504
    106          8           0        7.929407   -0.860007   -6.453986
    107          6           0        7.151792   -3.648086   -3.108546
    108          1           0        6.731206   -2.952433   -2.373189
    109          1           0        8.138489   -3.930416   -2.724245
    110          6           0        6.259700   -4.912857   -3.170213
    111          1           0        6.852786   -5.827887   -3.247114
    112          1           0        5.611318   -4.896648   -4.051329
    113          7           0        5.377202   -5.085713   -2.001113
    114          1           0        5.767153   -5.524195   -1.177939
    115          7           0        3.742043   -3.649810   -2.835892
    116          1           0        2.935012   -3.079499   -2.573461
    117          1           0        4.389188   -3.170197   -3.470380
    118          7           0        3.477230   -4.572482   -0.743341
    119          1           0        2.767108   -3.869435   -0.555881
    120          1           0        3.777331   -5.170959    0.010722
    121          6           0        4.225935   -4.419417   -1.855288
    122          8           0        5.666290   -0.573897   -6.426814
    123          1           0        2.902608    3.591281   -7.263922
 ---------------------------------------------------------------------

 SCF Done:  E(RB3LYP) =  -2974.01016736     A.U. after    3 cycles

 Alpha  occ. eigenvalues --  -19.26824 -19.24860 -19.22609 -19.21624 -19.20388
 Alpha  occ. eigenvalues --  -19.20383 -19.20148 -19.19860 -19.16791 -19.07926
 Alpha  occ. eigenvalues --  -19.06447 -14.59384 -14.49336 -14.46931 -14.46420
 Alpha  occ. eigenvalues --  -14.45828 -14.45107 -14.44419 -14.44123 -14.44035
 Alpha  occ. eigenvalues --  -14.38271 -10.43661 -10.42345 -10.40983 -10.39551
 Alpha  occ. eigenvalues --  -10.38028 -10.37893 -10.37386 -10.37197 -10.35102
 Alpha  occ. eigenvalues --  -10.34400 -10.33505 -10.32591 -10.32339 -10.31477
 Alpha  occ. eigenvalues --  -10.31341 -10.31177 -10.30454 -10.30415 -10.30407
 Alpha  occ. eigenvalues --  -10.30146 -10.30079 -10.29977 -10.29248 -10.28669
 Alpha  occ. eigenvalues --  -10.26738 -10.26249 -10.26206 -10.25728 -10.25575
 Alpha  occ. eigenvalues --  -10.25450 -10.24324 -10.24242 -10.24130 -10.24089
 Alpha  occ. eigenvalues --  -10.23595 -10.23544 -10.23247 -10.23043 -10.22918
 Alpha  occ. eigenvalues --  -10.22781 -10.21202  -1.19224  -1.16141  -1.14482
 Alpha  occ. eigenvalues --   -1.13497  -1.12859  -1.12393  -1.11663  -1.11014
 Alpha  occ. eigenvalues --   -1.08965  -1.08187  -1.06823  -1.06111  -1.02474
 Alpha  occ. eigenvalues --   -1.01350  -1.00918  -1.00755  -1.00675  -1.00560
 Alpha  occ. eigenvalues --   -0.98493  -0.97668  -0.94972  -0.93314  -0.91825
 Alpha  occ. eigenvalues --   -0.90301  -0.89274  -0.88354  -0.86861  -0.86390
 Alpha  occ. eigenvalues --   -0.85928  -0.85739  -0.84232  -0.84031  -0.82310
 Alpha  occ. eigenvalues --   -0.80141  -0.79716  -0.79442  -0.78597  -0.77783
 Alpha  occ. eigenvalues --   -0.77311  -0.75029  -0.74375  -0.74206  -0.73429
 Alpha  occ. eigenvalues --   -0.73075  -0.72978  -0.72427  -0.71488  -0.71327
 Alpha  occ. eigenvalues --   -0.70807  -0.69947  -0.69424  -0.68637  -0.68317
 Alpha  occ. eigenvalues --   -0.67550  -0.67071  -0.66829  -0.66668  -0.65849
 Alpha  occ. eigenvalues --   -0.64856  -0.64395  -0.63846  -0.63744  -0.63391
 Alpha  occ. eigenvalues --   -0.63284  -0.62170  -0.61318  -0.60418  -0.60334
 Alpha  occ. eigenvalues --   -0.59678  -0.59558  -0.58970  -0.58527  -0.58357
 Alpha  occ. eigenvalues --   -0.57762  -0.57434  -0.57331  -0.56817  -0.56627
 Alpha  occ. eigenvalues --   -0.56216  -0.55573  -0.55358  -0.55068  -0.54773
 Alpha  occ. eigenvalues --   -0.54749  -0.54035  -0.53686  -0.53428  -0.53390
 Alpha  occ. eigenvalues --   -0.53220  -0.52979  -0.52849  -0.52491  -0.52341
 Alpha  occ. eigenvalues --   -0.52013  -0.51865  -0.51832  -0.51619  -0.51329
 Alpha  occ. eigenvalues --   -0.51013  -0.50634  -0.50253  -0.50180  -0.49487
 Alpha  occ. eigenvalues --   -0.49170  -0.49152  -0.49001  -0.48513  -0.48212
 Alpha  occ. eigenvalues --   -0.48057  -0.47716  -0.47496  -0.47438  -0.47275
 Alpha  occ. eigenvalues --   -0.46814  -0.46672  -0.46556  -0.46154  -0.45697
 Alpha  occ. eigenvalues --   -0.45611  -0.45436  -0.45413  -0.45345  -0.45297
 Alpha  occ. eigenvalues --   -0.45152  -0.44809  -0.44666  -0.44378  -0.44315
 Alpha  occ. eigenvalues --   -0.43624  -0.43327  -0.42755  -0.42404  -0.41579
 Alpha  occ. eigenvalues --   -0.41375  -0.41320  -0.40765  -0.40496  -0.40222
 Alpha  occ. eigenvalues --   -0.39471  -0.39412  -0.39401  -0.39025  -0.38883
 Alpha  occ. eigenvalues --   -0.38605  -0.37936  -0.37460  -0.37352  -0.37336
 Alpha  occ. eigenvalues --   -0.36824  -0.36772  -0.36674  -0.36554  -0.36300
 Alpha  occ. eigenvalues --   -0.36127  -0.35848  -0.35111  -0.34791  -0.34641
 Alpha  occ. eigenvalues --   -0.34311  -0.34050  -0.33631  -0.33482  -0.32857
 Alpha  occ. eigenvalues --   -0.30854  -0.29999  -0.29885  -0.26013  -0.22939
 Alpha  occ. eigenvalues --   -0.22811  -0.20462
 Alpha virt. eigenvalues --   -0.12964  -0.12451  -0.12295  -0.08858  -0.08228
 Alpha virt. eigenvalues --   -0.07630  -0.06793  -0.06257  -0.05643  -0.05046
 Alpha virt. eigenvalues --   -0.04521  -0.04429  -0.03866  -0.03739  -0.03391

 Mulliken charges:
               1
     1  N   -0.757057
     2  H    0.410501
     3  H    0.404262
     4  H    0.433471
     5  C   -0.112735
     6  H    0.228861
     7  C    0.657093
     8  C   -0.394193
     9  H    0.190056
    10  H    0.209791
    11  O   -0.540769
    12  C    0.139255
    13  C   -0.234881
    14  H    0.142180
    15  C   -0.183697
    16  H    0.163699
    17  C   -0.118559
    18  H    0.165973
    19  C   -0.124783
    20  H    0.164571
    21  C   -0.121225
    22  H    0.168105
    23  N   -0.610057
    24  H    0.378020
    25  C   -0.061183
    26  H    0.201957
    27  C    0.633490
    28  C   -0.455705
    29  H    0.180773
    30  H    0.173648
    31  H    0.186729
    32  O   -0.554922
    33  N   -0.619149
    34  H    0.368551
    35  C   -0.047846
    36  H    0.189603
    37  C    0.622526
    38  C   -0.451789
    39  H    0.170930
    40  H    0.165016
    41  H    0.180438
    42  O   -0.545984
    43  N   -0.616626
    44  H    0.366838
    45  C   -0.045618
    46  H    0.180761
    47  C    0.635487
    48  C   -0.374732
    49  H    0.143103
    50  H    0.186562
    51  O   -0.529169
    52  C    0.168335
    53  C   -0.185754
    54  H    0.109862
    55  C   -0.211690
    56  H    0.125557
    57  C   -0.157740
    58  H    0.137214
    59  C   -0.196615
    60  H    0.134047
    61  O   -0.670378
    62  H    0.456640
    63  C    0.351312
    64  N   -0.607820
    65  H    0.341050
    66  C   -0.077866
    67  H    0.193669
    68  C    0.661458
    69  C   -0.260338
    70  H    0.114589
    71  H    0.165165
    72  O   -0.609411
    73  C   -0.068087
    74  H    0.131079
    75  C   -0.444832
    76  H    0.149765
    77  H    0.154428
    78  H    0.130574
    79  C   -0.469548
    80  H    0.145574
    81  H    0.172880
    82  H    0.150136
    83  N   -0.561653
    84  H    0.357557
    85  C   -0.075706
    86  H    0.163462
    87  C    0.590410
    88  C   -0.307351
    89  H    0.182612
    90  H    0.174018
    91  O   -0.526577
    92  C   -0.396909
    93  H    0.176728
    94  H    0.267441
    95  C    0.588286
    96  O   -0.500733
    97  O   -0.522429
    98  N   -0.656109
    99  H    0.367598
   100  C   -0.084658
   101  H    0.162980
   102  C    0.589446
   103  C   -0.283012
   104  H    0.189031
   105  H    0.139515
   106  O   -0.555391
   107  C   -0.298231
   108  H    0.178209
   109  H    0.154372
   110  C   -0.184205
   111  H    0.182307
   112  H    0.190158
   113  N   -0.587544
   114  H    0.347921
   115  N   -0.793385
   116  H    0.396485
   117  H    0.406840
   118  N   -0.786929
   119  H    0.396008
   120  H    0.356429
   121  C    0.788057
   122  O   -0.617582
   123  H    0.417709
 Sum of Mulliken charges =   1.00000

 Dipole moment (field-independent basis, Debye):
    X=            -42.1716    Y=             11.6287    Z=             32.8541  Tot=             54.7089
 Quadrupole moment (field-independent basis, Debye-Ang):
   XX=             15.8697   YY=           -182.2955   ZZ=           -288.8254
   XY=           -277.8991   XZ=           -148.1812   YZ=            122.7516

 Normal termination of Gaussian 16 at Mon Jul 18 02:04:31 2022.
