 Gaussian 16, Revision C.01,
 Gaussian 16:  ES64L-G16RevC.01  3-Jul-2019

 -------------------------------------------------------------------
 # B3LYP/6-31G* guess=read geom=check nosymm integral(ultrafinegrid)
 -------------------------------------------------------------------

 ------------------------------------------------------
 Candidate Structure: Conf:625 Charge calc in gas phase
 ------------------------------------------------------
 Structure from the checkpoint file:  "conf-625.chk"
 Charge =  1 Multiplicity = 1

                          Input orientation:
 ---------------------------------------------------------------------
 Center     Atomic      Atomic             Coordinates (Angstroms)
 Number     Number       Type             X           Y           Z
 ---------------------------------------------------------------------
      1          7           0      -11.547422    5.311034    6.765833
      2          1           0      -11.740612    6.229430    6.356962
      3          1           0      -12.016445    5.251136    7.673890
      4          1           0      -11.890558    4.549113    6.093533
      5          6           0      -10.066360    4.981471    6.836554
      6          1           0       -9.502274    5.902816    6.679106
      7          6           0       -9.901223    4.001881    5.637249
      8          6           0       -9.732155    4.367857    8.215417
      9          1           0      -10.288988    3.429477    8.327429
     10          1           0      -10.100101    5.062089    8.984439
     11          8           0      -10.949041    3.539534    5.146202
     12          6           0       -8.249299    4.125334    8.416294
     13          6           0       -7.739108    2.822477    8.460725
     14          1           0       -8.411752    1.974396    8.355546
     15          6           0       -7.370330    5.208000    8.567712
     16          1           0       -7.752594    6.227592    8.562350
     17          6           0       -6.373837    2.604622    8.649413
     18          1           0       -5.991328    1.589069    8.688230
     19          6           0       -6.005166    4.990121    8.749576
     20          1           0       -5.334666    5.836039    8.867652
     21          6           0       -5.505141    3.686965    8.790040
     22          1           0       -4.442483    3.517445    8.934307
     23          7           0       -8.672797    3.739830    5.226206
     24          1           0       -7.835948    4.089757    5.704786
     25          6           0       -8.342953    2.814593    4.138363
     26          1           0       -8.876116    1.871633    4.304872
     27          6           0       -6.817606    2.590749    4.277564
     28          6           0       -8.721254    3.383651    2.761286
     29          1           0       -8.466067    2.672044    1.970448
     30          1           0       -8.183014    4.317372    2.569810
     31          1           0       -9.796957    3.571366    2.714652
     32          8           0       -6.161412    3.298378    5.048760
     33          7           0       -6.305436    1.619068    3.512143
     34          1           0       -6.862498    1.099778    2.834061
     35          6           0       -4.878958    1.338470    3.401280
     36          1           0       -4.338336    2.290303    3.342561
     37          6           0       -4.723041    0.566386    2.071908
     38          6           0       -4.351766    0.532578    4.600852
     39          1           0       -3.277709    0.343848    4.504684
     40          1           0       -4.866894   -0.430932    4.672250
     41          1           0       -4.521083    1.097702    5.521323
     42          8           0       -5.717936    0.128186    1.485579
     43          7           0       -3.461305    0.421561    1.634147
     44          1           0       -2.662564    0.678051    2.211436
     45          6           0       -3.096967   -0.410730    0.494823
     46          1           0       -3.678335   -1.340539    0.551349
     47          6           0       -1.604816   -0.757299    0.709934
     48          6           0       -3.426737    0.256142   -0.871097
     49          1           0       -3.402151   -0.525345   -1.640876
     50          1           0       -4.473802    0.572340   -0.804025
     51          8           0       -1.014904   -0.350155    1.713794
     52          6           0       -2.523258    1.395342   -1.291685
     53          6           0       -2.527318    2.640082   -0.640498
     54          1           0       -3.220444    2.815247    0.178083
     55          6           0       -1.639684    1.226338   -2.364115
     56          1           0       -1.608721    0.281690   -2.899146
     57          6           0       -1.653840    3.658780   -1.011337
     58          1           0       -1.648551    4.612571   -0.492633
     59          6           0       -0.773164    2.242437   -2.759067
     60          1           0       -0.112904    2.094603   -3.608290
     61          8           0        0.106047    4.463953   -2.384221
     62          1           0        0.771461    4.118024   -3.007925
     63          6           0       -0.754366    3.457710   -2.066436
     64          7           0       -1.035758   -1.557090   -0.219451
     65          1           0       -1.483735   -1.683308   -1.121209
     66          6           0        0.389311   -1.869893   -0.217006
     67          1           0        0.861469   -1.221234    0.524544
     68          6           0        0.941714   -1.554876   -1.618657
     69          6           0        0.664019   -3.357110    0.115903
     70          1           0        0.157896   -3.966266   -0.645690
     71          1           0        1.740520   -3.544123   -0.004322
     72          8           0        0.205892   -1.541821   -2.605838
     73          6           0        0.223646   -3.820207    1.517906
     74          1           0       -0.845011   -3.586713    1.628344
     75          6           0        0.385792   -5.344177    1.631097
     76          1           0        1.438611   -5.636330    1.525660
     77          1           0        0.038693   -5.704238    2.606456
     78          1           0       -0.185537   -5.869259    0.856144
     79          6           0        0.987473   -3.103393    2.641761
     80          1           0        2.070331   -3.254723    2.539135
     81          1           0        0.784317   -2.028169    2.649938
     82          1           0        0.691875   -3.500382    3.620165
     83          7           0        2.279139   -1.324071   -1.657849
     84          1           0        2.836043   -1.582331   -0.845364
     85          6           0        3.062555   -1.377699   -2.885935
     86          1           0        2.394167   -1.694404   -3.693157
     87          6           0        4.172851   -2.430391   -2.651034
     88          6           0        3.702277   -0.016026   -3.233600
     89          1           0        4.380349    0.276827   -2.423642
     90          1           0        4.324298   -0.130788   -4.127597
     91          8           0        4.477413   -2.761249   -1.499089
     92          6           0        2.668717    1.087382   -3.463340
     93          1           0        2.039379    1.231092   -2.577314
     94          1           0        1.978342    0.820994   -4.274735
     95          6           0        3.312781    2.407944   -3.814805
     96          8           0        4.492597    2.624385   -3.943416
     97          8           0        2.384743    3.406174   -4.003357
     98          7           0        4.768567   -2.898841   -3.757797
     99          1           0        4.515465   -2.591947   -4.696950
    100          6           0        5.946043   -3.760949   -3.769519
    101          1           0        6.656124   -3.406892   -3.014672
    102          6           0        6.566040   -3.597731   -5.191388
    103          6           0        5.528458   -5.222935   -3.419242
    104          1           0        4.997140   -5.654843   -4.278477
    105          1           0        4.791916   -5.122657   -2.617266
    106          8           0        7.793381   -3.953502   -5.308193
    107          6           0        6.627886   -6.191773   -2.911537
    108          1           0        6.224733   -6.774176   -2.074723
    109          1           0        7.473266   -5.626071   -2.498736
    110          6           0        7.165338   -7.216252   -3.924395
    111          1           0        6.334988   -7.790309   -4.356695
    112          1           0        7.827608   -7.923900   -3.407317
    113          7           0        7.896318   -6.526824   -4.987786
    114          1           0        8.029091   -5.494856   -4.845564
    115          7           0        7.583221   -8.102410   -6.686541
    116          1           0        7.655534   -8.338515   -7.665390
    117          1           0        7.726975   -8.864088   -6.039689
    118          7           0        8.150154   -5.876260   -7.166526
    119          1           0        8.177709   -6.063169   -8.157182
    120          1           0        8.077199   -4.900725   -6.803993
    121          6           0        7.880511   -6.840473   -6.280924
    122          8           0        5.828970   -3.170763   -6.091523
    123          1           0        2.901069    4.196548   -4.255066
 ---------------------------------------------------------------------

 SCF Done:  E(RB3LYP) =  -2974.04329550     A.U. after    1 cycles

 Alpha  occ. eigenvalues --  -19.26443 -19.25130 -19.20960 -19.20135 -19.19017
 Alpha  occ. eigenvalues --  -19.18801 -19.17615 -19.16624 -19.15109 -19.12654
 Alpha  occ. eigenvalues --  -19.11826 -14.59584 -14.48677 -14.45095 -14.44253
 Alpha  occ. eigenvalues --  -14.42214 -14.42150 -14.41509 -14.41216 -14.40121
 Alpha  occ. eigenvalues --  -14.38484 -10.43074 -10.40572 -10.39595 -10.38011
 Alpha  occ. eigenvalues --  -10.37087 -10.35722 -10.34654 -10.34059 -10.33965
 Alpha  occ. eigenvalues --  -10.33497 -10.32097 -10.31081 -10.30554 -10.30053
 Alpha  occ. eigenvalues --  -10.29397 -10.29094 -10.28867 -10.28725 -10.28348
 Alpha  occ. eigenvalues --  -10.28232 -10.28124 -10.28071 -10.27860 -10.27702
 Alpha  occ. eigenvalues --  -10.27435 -10.25347 -10.25185 -10.24689 -10.24314
 Alpha  occ. eigenvalues --  -10.24068 -10.23540 -10.23050 -10.22908 -10.22776
 Alpha  occ. eigenvalues --  -10.22724 -10.22672 -10.22332 -10.21933 -10.21930
 Alpha  occ. eigenvalues --  -10.21109 -10.20561  -1.18855  -1.15391  -1.13465
 Alpha  occ. eigenvalues --   -1.12798  -1.10665  -1.09415  -1.08466  -1.08385
 Alpha  occ. eigenvalues --   -1.08269  -1.06767  -1.06496  -1.05406  -1.05298
 Alpha  occ. eigenvalues --   -1.00955  -0.98921  -0.98162  -0.97719  -0.96896
 Alpha  occ. eigenvalues --   -0.96683  -0.96271  -0.96225  -0.94835  -0.92389
 Alpha  occ. eigenvalues --   -0.88876  -0.88185  -0.85775  -0.85202  -0.84601
 Alpha  occ. eigenvalues --   -0.84202  -0.84022  -0.83812  -0.82368  -0.80105
 Alpha  occ. eigenvalues --   -0.79492  -0.78750  -0.78101  -0.77229  -0.76525
 Alpha  occ. eigenvalues --   -0.76149  -0.73764  -0.73517  -0.72692  -0.71973
 Alpha  occ. eigenvalues --   -0.71751  -0.71293  -0.70371  -0.70220  -0.69973
 Alpha  occ. eigenvalues --   -0.69427  -0.68454  -0.67966  -0.66536  -0.65993
 Alpha  occ. eigenvalues --   -0.65679  -0.65488  -0.64867  -0.64373  -0.63877
 Alpha  occ. eigenvalues --   -0.62939  -0.62774  -0.62502  -0.62028  -0.61773
 Alpha  occ. eigenvalues --   -0.61549  -0.60874  -0.60744  -0.60248  -0.59222
 Alpha  occ. eigenvalues --   -0.58789  -0.57672  -0.57538  -0.56952  -0.56713
 Alpha  occ. eigenvalues --   -0.56515  -0.56202  -0.55654  -0.55401  -0.54964
 Alpha  occ. eigenvalues --   -0.54258  -0.54151  -0.53984  -0.53331  -0.53281
 Alpha  occ. eigenvalues --   -0.52759  -0.52612  -0.52515  -0.52342  -0.51910
 Alpha  occ. eigenvalues --   -0.51859  -0.51562  -0.51209  -0.51149  -0.50979
 Alpha  occ. eigenvalues --   -0.50860  -0.50232  -0.50103  -0.50025  -0.49895
 Alpha  occ. eigenvalues --   -0.49485  -0.49004  -0.48701  -0.48353  -0.48196
 Alpha  occ. eigenvalues --   -0.48020  -0.47708  -0.47587  -0.47024  -0.46963
 Alpha  occ. eigenvalues --   -0.46679  -0.46559  -0.46232  -0.45754  -0.45498
 Alpha  occ. eigenvalues --   -0.45415  -0.45233  -0.44956  -0.44843  -0.44673
 Alpha  occ. eigenvalues --   -0.44287  -0.44183  -0.44023  -0.43880  -0.43768
 Alpha  occ. eigenvalues --   -0.43748  -0.43463  -0.43376  -0.42889  -0.42794
 Alpha  occ. eigenvalues --   -0.42320  -0.42017  -0.41806  -0.41707  -0.41099
 Alpha  occ. eigenvalues --   -0.41069  -0.40526  -0.40313  -0.40081  -0.39650
 Alpha  occ. eigenvalues --   -0.39418  -0.38725  -0.38688  -0.38561  -0.38334
 Alpha  occ. eigenvalues --   -0.37284  -0.37225  -0.36787  -0.36772  -0.36288
 Alpha  occ. eigenvalues --   -0.36283  -0.35853  -0.35606  -0.35196  -0.34597
 Alpha  occ. eigenvalues --   -0.34390  -0.34152  -0.32765  -0.32563  -0.32352
 Alpha  occ. eigenvalues --   -0.32071  -0.31671  -0.31310  -0.30594  -0.29752
 Alpha  occ. eigenvalues --   -0.29227  -0.28973  -0.28491  -0.27782  -0.26839
 Alpha  occ. eigenvalues --   -0.26045  -0.25010
 Alpha virt. eigenvalues --   -0.12130  -0.10879  -0.10593  -0.09733  -0.06661
 Alpha virt. eigenvalues --   -0.05755  -0.04742  -0.04283  -0.04056  -0.03477
 Alpha virt. eigenvalues --   -0.03235  -0.02601  -0.02470  -0.02250  -0.01288

 Mulliken charges:
               1
     1  N   -0.761484
     2  H    0.415555
     3  H    0.411783
     4  H    0.435447
     5  C   -0.106369
     6  H    0.217828
     7  C    0.654263
     8  C   -0.382533
     9  H    0.185824
    10  H    0.181194
    11  O   -0.550863
    12  C    0.145446
    13  C   -0.178585
    14  H    0.140533
    15  C   -0.188783
    16  H    0.128465
    17  C   -0.115345
    18  H    0.157231
    19  C   -0.118151
    20  H    0.159340
    21  C   -0.112094
    22  H    0.161305
    23  N   -0.607528
    24  H    0.389868
    25  C   -0.051326
    26  H    0.193419
    27  C    0.627566
    28  C   -0.459713
    29  H    0.183644
    30  H    0.171117
    31  H    0.185940
    32  O   -0.544923
    33  N   -0.621458
    34  H    0.365076
    35  C   -0.044903
    36  H    0.186267
    37  C    0.618334
    38  C   -0.454798
    39  H    0.172412
    40  H    0.163666
    41  H    0.177357
    42  O   -0.547425
    43  N   -0.616529
    44  H    0.366033
    45  C   -0.042747
    46  H    0.184093
    47  C    0.625991
    48  C   -0.379957
    49  H    0.148611
    50  H    0.184488
    51  O   -0.541665
    52  C    0.166518
    53  C   -0.184345
    54  H    0.111702
    55  C   -0.203292
    56  H    0.152445
    57  C   -0.157832
    58  H    0.133368
    59  C   -0.209124
    60  H    0.138580
    61  O   -0.672383
    62  H    0.433768
    63  C    0.347008
    64  N   -0.602270
    65  H    0.351328
    66  C   -0.084957
    67  H    0.190752
    68  C    0.617433
    69  C   -0.262656
    70  H    0.140993
    71  H    0.154581
    72  O   -0.542224
    73  C   -0.064834
    74  H    0.126761
    75  C   -0.444518
    76  H    0.145029
    77  H    0.143606
    78  H    0.140054
    79  C   -0.466557
    80  H    0.140398
    81  H    0.173297
    82  H    0.140232
    83  N   -0.592753
    84  H    0.354486
    85  C   -0.088231
    86  H    0.180345
    87  C    0.626882
    88  C   -0.258764
    89  H    0.168548
    90  H    0.176225
    91  O   -0.560449
    92  C   -0.370390
    93  H    0.200340
    94  H    0.190484
    95  C    0.595013
    96  O   -0.438343
    97  O   -0.600196
    98  N   -0.614430
    99  H    0.355626
   100  C   -0.037875
   101  H    0.166827
   102  C    0.591075
   103  C   -0.275123
   104  H    0.139685
   105  H    0.174834
   106  O   -0.644178
   107  C   -0.303956
   108  H    0.156260
   109  H    0.169778
   110  C   -0.145527
   111  H    0.158652
   112  H    0.158824
   113  N   -0.610355
   114  H    0.410988
   115  N   -0.754392
   116  H    0.358994
   117  H    0.367097
   118  N   -0.772078
   119  H    0.345554
   120  H    0.419452
   121  C    0.765101
   122  O   -0.548627
   123  H    0.420823
 Sum of Mulliken charges =   1.00000

 Dipole moment (field-independent basis, Debye):
    X=            -32.4606    Y=              5.5037    Z=             20.0709  Tot=             38.5594
 Quadrupole moment (field-independent basis, Debye-Ang):
   XX=            119.8825   YY=           -119.6214   ZZ=            -99.4436
   XY=           -316.3670   XZ=           -348.3569   YZ=            226.1386

 Normal termination of Gaussian 16 at Mon Jul 18 02:08:35 2022.
