 Gaussian 16, Revision C.01,
 Gaussian 16:  ES64L-G16RevC.01  3-Jul-2019

 -------------------------------------------------------------------
 # B3LYP/6-31G* guess=read geom=check nosymm integral(ultrafinegrid)
 -------------------------------------------------------------------

 ------------------------------------------------------
 Candidate Structure: Conf:197 Charge calc in gas phase
 ------------------------------------------------------
 Structure from the checkpoint file:  "conf-197.chk"
 Charge =  1 Multiplicity = 1

                          Input orientation:
 ---------------------------------------------------------------------
 Center     Atomic      Atomic             Coordinates (Angstroms)
 Number     Number       Type             X           Y           Z
 ---------------------------------------------------------------------
      1          7           0      -11.190782    5.038565    6.601835
      2          1           0      -11.590502    4.257213    6.003338
      3          1           0      -11.751053    5.891241    6.541068
      4          1           0      -11.154843    4.717060    7.583163
      5          6           0       -9.788743    5.174997    6.053124
      6          1           0       -9.797756    6.022913    5.361110
      7          6           0       -9.636676    3.872574    5.209462
      8          6           0       -8.764736    5.424252    7.184858
      9          1           0       -8.926007    6.439459    7.566843
     10          1           0       -7.764788    5.430739    6.738399
     11          8           0      -10.667367    3.219235    4.983122
     12          6           0       -8.851929    4.418320    8.315128
     13          6           0       -9.679851    4.678341    9.421377
     14          1           0      -10.175966    5.644755    9.513036
     15          6           0       -8.143554    3.207892    8.267713
     16          1           0       -7.471012    3.003351    7.438264
     17          6           0       -9.815675    3.739467   10.448569
     18          1           0      -10.449107    3.960401   11.302570
     19          6           0       -8.275295    2.276987    9.298003
     20          1           0       -7.712159    1.349293    9.256912
     21          6           0       -9.116475    2.534826   10.383824
     22          1           0       -9.212284    1.806376   11.183282
     23          7           0       -8.425409    3.591069    4.751124
     24          1           0       -7.586272    4.056823    5.102713
     25          6           0       -8.086507    2.373954    4.010068
     26          1           0       -8.672127    1.546538    4.427550
     27          6           0       -6.587550    2.145460    4.332179
     28          6           0       -8.389889    2.507060    2.510189
     29          1           0       -8.146814    1.581272    1.979727
     30          1           0       -7.817565    3.318017    2.051003
     31          1           0       -9.457331    2.701218    2.370786
     32          8           0       -5.990130    2.940903    5.071807
     33          7           0       -6.031678    1.061835    3.780034
     34          1           0       -6.515144    0.520493    3.063641
     35          6           0       -4.598007    0.783896    3.799312
     36          1           0       -4.067766    1.738601    3.874611
     37          6           0       -4.310115    0.126662    2.431177
     38          6           0       -4.197112   -0.121190    4.974693
     39          1           0       -3.119912   -0.318017    4.965398
     40          1           0       -4.723015   -1.079718    4.919450
     41          1           0       -4.448374    0.367589    5.920548
     42          8           0       -5.235673   -0.351488    1.772373
     43          7           0       -3.021365    0.130679    2.040091
     44          1           0       -2.276039    0.434538    2.658266
     45          6           0       -2.572871   -0.381206    0.755661
     46          1           0       -3.325016   -1.089907    0.400090
     47          6           0       -1.214281   -1.057587    0.994857
     48          6           0       -2.389277    0.761795   -0.295462
     49          1           0       -1.533064    1.367764    0.026504
     50          1           0       -2.124433    0.301515   -1.254748
     51          8           0       -0.468559   -0.655298    1.889025
     52          6           0       -3.611444    1.636931   -0.447048
     53          6           0       -3.767940    2.795274    0.327436
     54          1           0       -2.967839    3.101200    0.997591
     55          6           0       -4.642943    1.294503   -1.329439
     56          1           0       -4.538144    0.415283   -1.960260
     57          6           0       -4.922667    3.570773    0.255501
     58          1           0       -5.033806    4.473447    0.848927
     59          6           0       -5.804726    2.060209   -1.415591
     60          1           0       -6.596756    1.773588   -2.105416
     61          8           0       -7.086303    3.968631   -0.619100
     62          1           0       -7.679988    3.644932   -1.314753
     63          6           0       -5.952270    3.193426   -0.610340
     64          7           0       -0.905643   -2.049643    0.132127
     65          1           0       -1.544253   -2.299086   -0.616464
     66          6           0        0.425367   -2.649102    0.020839
     67          1           0        1.131689   -1.949869    0.475399
     68          6           0        0.649680   -2.780827   -1.492958
     69          6           0        0.487510   -4.018307    0.728692
     70          1           0        0.164901   -3.864257    1.766630
     71          1           0       -0.256752   -4.668391    0.251798
     72          8           0       -0.252459   -3.233734   -2.200232
     73          6           0        1.864049   -4.713242    0.714917
     74          1           0        2.198988   -4.794588   -0.330204
     75          6           0        2.928803   -3.926701    1.496424
     76          1           0        2.627422   -3.796029    2.543518
     77          1           0        3.887120   -4.458019    1.488679
     78          1           0        3.109980   -2.929211    1.079317
     79          6           0        1.732246   -6.139150    1.271495
     80          1           0        1.394363   -6.122773    2.315693
     81          1           0        1.009555   -6.728409    0.695332
     82          1           0        2.694064   -6.663811    1.242553
     83          7           0        1.819459   -2.317226   -1.992431
     84          1           0        2.604801   -2.091351   -1.391200
     85          6           0        2.108095   -2.349965   -3.417177
     86          1           0        1.447765   -3.095367   -3.867583
     87          6           0        3.583346   -2.745489   -3.580600
     88          6           0        1.870630   -0.974910   -4.101675
     89          1           0        2.684902   -0.297906   -3.814212
     90          1           0        1.936783   -1.111985   -5.185949
     91          8           0        4.387906   -2.562933   -2.662723
     92          6           0        0.548837   -0.283447   -3.737243
     93          1           0        0.512718    0.684677   -4.255913
     94          1           0        0.505954   -0.056809   -2.668959
     95          6           0       -0.744069   -0.995801   -4.083500
     96          8           0       -1.797264   -0.827673   -3.503741
     97          8           0       -0.625685   -1.800391   -5.161614
     98          7           0        3.916793   -3.255330   -4.786085
     99          1           0        3.244485   -3.268771   -5.548886
    100          6           0        5.296591   -3.414212   -5.224560
    101          1           0        5.908086   -2.724224   -4.640748
    102          6           0        5.352148   -3.008685   -6.711990
    103          6           0        5.815000   -4.863854   -5.044768
    104          1           0        6.670319   -5.019240   -5.711275
    105          1           0        5.028614   -5.540521   -5.399432
    106          8           0        6.547897   -2.725226   -7.208238
    107          6           0        6.203865   -5.246653   -3.606237
    108          1           0        6.419713   -6.323866   -3.586288
    109          1           0        5.356082   -5.081178   -2.931492
    110          6           0        7.412767   -4.487212   -3.024734
    111          1           0        7.622427   -4.856243   -2.015826
    112          1           0        7.172038   -3.427378   -2.907343
    113          7           0        8.647058   -4.621935   -3.800174
    114          1           0        9.172045   -5.477473   -3.674292
    115          7           0        8.443391   -2.733940   -5.246180
    116          1           0        7.281274   -2.686701   -6.505571
    117          1           0        8.076352   -2.269565   -4.416578
    118          7           0        9.713356   -4.564557   -5.858106
    119          1           0        9.897787   -4.030541   -6.697835
    120          1           0        9.580593   -5.556467   -6.008282
    121          6           0        8.890536   -3.924089   -4.957662
    122          8           0        4.339421   -2.993686   -7.386373
    123          1           0       -1.499217   -2.214728   -5.295261
 ---------------------------------------------------------------------

 SCF Done:  E(RB3LYP) =  -2974.03855000     A.U. after    3 cycles

 Alpha  occ. eigenvalues --  -19.25984 -19.24486 -19.23705 -19.21494 -19.20657
 Alpha  occ. eigenvalues --  -19.18640 -19.18629 -19.17492 -19.17344 -19.17302
 Alpha  occ. eigenvalues --  -19.16590 -14.58630 -14.48394 -14.44474 -14.42635
 Alpha  occ. eigenvalues --  -14.41938 -14.41730 -14.41370 -14.41317 -14.40543
 Alpha  occ. eigenvalues --  -14.34825 -10.42782 -10.40225 -10.38379 -10.37079
 Alpha  occ. eigenvalues --  -10.35821 -10.35088 -10.34963 -10.34517 -10.34515
 Alpha  occ. eigenvalues --  -10.34503 -10.33929 -10.33711 -10.31679 -10.31159
 Alpha  occ. eigenvalues --  -10.30554 -10.30332 -10.29806 -10.29700 -10.29485
 Alpha  occ. eigenvalues --  -10.29364 -10.29354 -10.28922 -10.28747 -10.28401
 Alpha  occ. eigenvalues --  -10.27845 -10.27127 -10.25619 -10.25484 -10.25285
 Alpha  occ. eigenvalues --  -10.24559 -10.24450 -10.24359 -10.24274 -10.24228
 Alpha  occ. eigenvalues --  -10.24155 -10.24055 -10.23973 -10.23912 -10.23431
 Alpha  occ. eigenvalues --  -10.22060 -10.21787  -1.18389  -1.15270  -1.13347
 Alpha  occ. eigenvalues --   -1.12659  -1.12230  -1.11468  -1.10667  -1.09851
 Alpha  occ. eigenvalues --   -1.09181  -1.08712  -1.06107  -1.05172  -1.04343
 Alpha  occ. eigenvalues --   -1.03915  -1.01200  -0.99192  -0.98324  -0.98073
 Alpha  occ. eigenvalues --   -0.97876  -0.97002  -0.94834  -0.92560  -0.90562
 Alpha  occ. eigenvalues --   -0.90166  -0.88187  -0.86617  -0.85944  -0.85614
 Alpha  occ. eigenvalues --   -0.85237  -0.84671  -0.84571  -0.82962  -0.80977
 Alpha  occ. eigenvalues --   -0.80005  -0.79850  -0.79384  -0.78189  -0.77117
 Alpha  occ. eigenvalues --   -0.76138  -0.73784  -0.73656  -0.73030  -0.72810
 Alpha  occ. eigenvalues --   -0.72290  -0.71784  -0.71072  -0.70669  -0.70001
 Alpha  occ. eigenvalues --   -0.69343  -0.68620  -0.67431  -0.67095  -0.66359
 Alpha  occ. eigenvalues --   -0.65964  -0.65506  -0.65219  -0.64941  -0.64092
 Alpha  occ. eigenvalues --   -0.63990  -0.63772  -0.63425  -0.63072  -0.63025
 Alpha  occ. eigenvalues --   -0.61885  -0.61329  -0.61163  -0.60563  -0.59742
 Alpha  occ. eigenvalues --   -0.59696  -0.59370  -0.58197  -0.57339  -0.57109
 Alpha  occ. eigenvalues --   -0.56725  -0.56206  -0.55575  -0.55404  -0.54767
 Alpha  occ. eigenvalues --   -0.54540  -0.54415  -0.54255  -0.53827  -0.53471
 Alpha  occ. eigenvalues --   -0.53189  -0.53069  -0.52735  -0.52614  -0.52430
 Alpha  occ. eigenvalues --   -0.52293  -0.52027  -0.51839  -0.51636  -0.51450
 Alpha  occ. eigenvalues --   -0.50957  -0.50945  -0.50745  -0.50667  -0.50221
 Alpha  occ. eigenvalues --   -0.49916  -0.49620  -0.49149  -0.48798  -0.48582
 Alpha  occ. eigenvalues --   -0.48482  -0.48248  -0.48103  -0.47907  -0.47563
 Alpha  occ. eigenvalues --   -0.47488  -0.47193  -0.47001  -0.46876  -0.46593
 Alpha  occ. eigenvalues --   -0.46494  -0.46036  -0.45790  -0.45687  -0.45671
 Alpha  occ. eigenvalues --   -0.45227  -0.45022  -0.44897  -0.44742  -0.44635
 Alpha  occ. eigenvalues --   -0.44395  -0.44005  -0.43864  -0.43764  -0.43634
 Alpha  occ. eigenvalues --   -0.43314  -0.42821  -0.42741  -0.42264  -0.41835
 Alpha  occ. eigenvalues --   -0.41425  -0.41336  -0.41063  -0.40839  -0.40763
 Alpha  occ. eigenvalues --   -0.40555  -0.40235  -0.40096  -0.39217  -0.38968
 Alpha  occ. eigenvalues --   -0.38913  -0.38451  -0.38143  -0.37875  -0.37313
 Alpha  occ. eigenvalues --   -0.37209  -0.36376  -0.36057  -0.35694  -0.35618
 Alpha  occ. eigenvalues --   -0.34712  -0.33837  -0.33515  -0.33131  -0.32497
 Alpha  occ. eigenvalues --   -0.32380  -0.32208  -0.31888  -0.31693  -0.31404
 Alpha  occ. eigenvalues --   -0.31029  -0.30542  -0.30272  -0.30180  -0.29929
 Alpha  occ. eigenvalues --   -0.28664  -0.27053
 Alpha virt. eigenvalues --   -0.12204  -0.11793  -0.11596  -0.08153  -0.07058
 Alpha virt. eigenvalues --   -0.05595  -0.05156  -0.04410  -0.04009  -0.03707
 Alpha virt. eigenvalues --   -0.03607  -0.03180  -0.02594  -0.02299  -0.01865

 Mulliken charges:
               1
     1  N   -0.757781
     2  H    0.433006
     3  H    0.408839
     4  H    0.403465
     5  C   -0.112403
     6  H    0.227875
     7  C    0.657342
     8  C   -0.393803
     9  H    0.187847
    10  H    0.209954
    11  O   -0.543392
    12  C    0.138912
    13  C   -0.234819
    14  H    0.140331
    15  C   -0.184635
    16  H    0.168103
    17  C   -0.118982
    18  H    0.163984
    19  C   -0.125673
    20  H    0.165059
    21  C   -0.121445
    22  H    0.166704
    23  N   -0.607908
    24  H    0.376917
    25  C   -0.062818
    26  H    0.200079
    27  C    0.629248
    28  C   -0.466068
    29  H    0.181161
    30  H    0.192232
    31  H    0.177909
    32  O   -0.556960
    33  N   -0.608858
    34  H    0.370129
    35  C   -0.057233
    36  H    0.184499
    37  C    0.637721
    38  C   -0.445716
    39  H    0.168370
    40  H    0.168268
    41  H    0.171235
    42  O   -0.541771
    43  N   -0.610165
    44  H    0.350593
    45  C   -0.055850
    46  H    0.185361
    47  C    0.622288
    48  C   -0.392833
    49  H    0.153306
    50  H    0.198441
    51  O   -0.545936
    52  C    0.182465
    53  C   -0.194226
    54  H    0.124109
    55  C   -0.174774
    56  H    0.151714
    57  C   -0.168683
    58  H    0.132044
    59  C   -0.190451
    60  H    0.125740
    61  O   -0.656990
    62  H    0.410209
    63  C    0.349464
    64  N   -0.614480
    65  H    0.360571
    66  C   -0.048342
    67  H    0.174261
    68  C    0.612831
    69  C   -0.251702
    70  H    0.151294
    71  H    0.151443
    72  O   -0.544128
    73  C   -0.086377
    74  H    0.130857
    75  C   -0.446306
    76  H    0.150079
    77  H    0.149583
    78  H    0.137410
    79  C   -0.443823
    80  H    0.144324
    81  H    0.147871
    82  H    0.145582
    83  N   -0.610501
    84  H    0.355120
    85  C   -0.065512
    86  H    0.198885
    87  C    0.618269
    88  C   -0.269775
    89  H    0.157729
    90  H    0.177839
    91  O   -0.553157
    92  C   -0.365929
    93  H    0.190301
    94  H    0.178289
    95  C    0.618674
    96  O   -0.482037
    97  O   -0.561073
    98  N   -0.603493
    99  H    0.358500
   100  C   -0.071727
   101  H    0.165464
   102  C    0.596572
   103  C   -0.268633
   104  H    0.147253
   105  H    0.160323
   106  O   -0.602505
   107  C   -0.259259
   108  H    0.134322
   109  H    0.167342
   110  C   -0.166239
   111  H    0.163144
   112  H    0.179586
   113  N   -0.582036
   114  H    0.328078
   115  N   -0.737652
   116  H    0.463796
   117  H    0.299607
   118  N   -0.741292
   119  H    0.356898
   120  H    0.330919
   121  C    0.649966
   122  O   -0.478970
   123  H    0.417216
 Sum of Mulliken charges =   1.00000

 Dipole moment (field-independent basis, Debye):
    X=            -32.6118    Y=             10.8915    Z=             24.1586  Tot=             42.0214
 Quadrupole moment (field-independent basis, Debye-Ang):
   XX=            112.9753   YY=           -215.7273   ZZ=           -174.6606
   XY=           -256.8506   XZ=           -282.7774   YZ=            142.5064

 Normal termination of Gaussian 16 at Mon Jul 18 02:05:36 2022.
