 Gaussian 16, Revision C.01,
 Gaussian 16:  ES64L-G16RevC.01  3-Jul-2019

 -------------------------------------------------------------------
 # B3LYP/6-31G* guess=read geom=check nosymm integral(ultrafinegrid)
 -------------------------------------------------------------------

 ------------------------------------------------------
 Candidate Structure: Conf:217 Charge calc in gas phase
 ------------------------------------------------------
 Structure from the checkpoint file:  "conf-217.chk"
 Charge =  1 Multiplicity = 1

                          Input orientation:
 ---------------------------------------------------------------------
 Center     Atomic      Atomic             Coordinates (Angstroms)
 Number     Number       Type             X           Y           Z
 ---------------------------------------------------------------------
      1          7           0      -11.600653    1.557321    8.020145
      2          1           0      -11.520933    0.575815    7.623885
      3          1           0      -12.573817    1.825031    8.181852
      4          1           0      -11.078616    1.596745    8.911122
      5          6           0      -10.893629    2.386541    6.972171
      6          1           0      -11.669075    2.827950    6.338262
      7          6           0      -10.154775    1.299709    6.133330
      8          6           0      -10.040311    3.501483    7.620432
      9          1           0      -10.725088    4.251828    8.033449
     10          1           0       -9.489351    4.010249    6.822371
     11          8           0      -10.481621    0.117729    6.320628
     12          6           0       -9.101097    2.998627    8.698396
     13          6           0       -9.526035    2.966843   10.038258
     14          1           0      -10.488934    3.397895   10.312883
     15          6           0       -7.816651    2.529893    8.383072
     16          1           0       -7.456658    2.578953    7.358365
     17          6           0       -8.694194    2.456721   11.039700
     18          1           0       -9.031891    2.450675   12.071805
     19          6           0       -6.986391    2.028971    9.385603
     20          1           0       -5.989472    1.680992    9.131684
     21          6           0       -7.424723    1.982183   10.711789
     22          1           0       -6.772173    1.592954   11.487410
     23          7           0       -9.270821    1.724641    5.240530
     24          1           0       -8.911943    2.681841    5.234844
     25          6           0       -8.437182    0.840050    4.424325
     26          1           0       -8.180914   -0.040245    5.024592
     27          6           0       -7.157044    1.671036    4.155202
     28          6           0       -9.155370    0.394500    3.141814
     29          1           0       -8.522216   -0.273855    2.550615
     30          1           0       -9.415643    1.257715    2.521333
     31          1           0      -10.069547   -0.147861    3.398883
     32          8           0       -7.086658    2.839386    4.564722
     33          7           0       -6.189673    1.045907    3.479486
     34          1           0       -6.303379    0.105987    3.099141
     35          6           0       -4.951354    1.678373    3.037792
     36          1           0       -5.189289    2.664137    2.621983
     37          6           0       -4.414942    0.756064    1.919794
     38          6           0       -3.939844    1.839945    4.185376
     39          1           0       -3.017157    2.311956    3.832607
     40          1           0       -3.685336    0.864140    4.611648
     41          1           0       -4.370854    2.471145    4.966931
     42          8           0       -4.901196   -0.364019    1.755690
     43          7           0       -3.410429    1.268812    1.181204
     44          1           0       -2.932199    2.114792    1.477895
     45          6           0       -2.664075    0.494143    0.202527
     46          1           0       -2.890292   -0.562132    0.372684
     47          6           0       -1.172619    0.790053    0.450502
     48          6           0       -3.028439    0.879847   -1.261139
     49          1           0       -2.704141    1.914465   -1.426199
     50          1           0       -2.425080    0.253463   -1.931199
     51          8           0       -0.832969    1.823617    1.030138
     52          6           0       -4.497662    0.747211   -1.595169
     53          6           0       -5.101732   -0.511172   -1.742369
     54          1           0       -4.506871   -1.412468   -1.613546
     55          6           0       -5.295947    1.880373   -1.777070
     56          1           0       -4.853977    2.869368   -1.679904
     57          6           0       -6.449036   -0.637795   -2.058974
     58          1           0       -6.909925   -1.612696   -2.181747
     59          6           0       -6.650230    1.772457   -2.098039
     60          1           0       -7.249476    2.669347   -2.246257
     61          8           0       -8.550364    0.329846   -2.552576
     62          1           0       -8.949574    1.192410   -2.745553
     63          6           0       -7.230378    0.509619   -2.240921
     64          7           0       -0.313619   -0.132184   -0.037768
     65          1           0       -0.663315   -0.864745   -0.650846
     66          6           0        1.116914    0.098657   -0.200265
     67          1           0        1.298316    1.172266   -0.094763
     68          6           0        1.459971   -0.361073   -1.632399
     69          6           0        1.967854   -0.691443    0.822537
     70          1           0        1.746699   -1.758284    0.682810
     71          1           0        3.028841   -0.559193    0.566406
     72          8           0        0.708010   -1.120848   -2.244868
     73          6           0        1.757862   -0.313335    2.301517
     74          1           0        0.684633   -0.401310    2.520939
     75          6           0        2.506642   -1.311203    3.198736
     76          1           0        3.588703   -1.268729    3.018457
     77          1           0        2.339852   -1.086853    4.258509
     78          1           0        2.178824   -2.341790    3.017574
     79          6           0        2.188451    1.129358    2.606154
     80          1           0        3.241878    1.290515    2.339754
     81          1           0        1.573720    1.857361    2.068588
     82          1           0        2.085456    1.342185    3.676704
     83          7           0        2.623266    0.112954   -2.136785
     84          1           0        3.278007    0.609140   -1.538254
     85          6           0        3.235055   -0.415327   -3.348424
     86          1           0        2.787463   -1.394450   -3.549197
     87          6           0        4.741285   -0.560606   -3.054098
     88          6           0        3.027404    0.506096   -4.573707
     89          1           0        3.495560    1.475769   -4.373471
     90          1           0        3.554850    0.069175   -5.430762
     91          8           0        5.263305    0.080563   -2.134450
     92          6           0        1.544418    0.705977   -4.923509
     93          1           0        1.034482    1.186794   -4.079550
     94          1           0        1.042503   -0.247031   -5.105008
     95          6           0        1.323052    1.573844   -6.144394
     96          8           0        0.586658    1.315529   -7.068488
     97          8           0        2.042579    2.726119   -6.086945
     98          7           0        5.410612   -1.397287   -3.871809
     99          1           0        4.952352   -1.794757   -4.688167
    100          6           0        6.864722   -1.463072   -3.937860
    101          1           0        7.253576   -0.507201   -3.588011
    102          6           0        7.252991   -1.644694   -5.412992
    103          6           0        7.462632   -2.614802   -3.087944
    104          1           0        8.430599   -2.904566   -3.512528
    105          1           0        6.800687   -3.481758   -3.199770
    106          8           0        8.540523   -1.467661   -5.684335
    107          6           0        7.653540   -2.287100   -1.600764
    108          1           0        7.825310   -3.227466   -1.059965
    109          1           0        6.738384   -1.849303   -1.185132
    110          6           0        8.853339   -1.376570   -1.286886
    111          1           0        9.757430   -1.760858   -1.766401
    112          1           0        9.024477   -1.391691   -0.202253
    113          7           0        8.729428    0.023183   -1.686723
    114          1           0        7.939048    0.537086   -1.317250
    115          7           0        9.902774   -0.130477   -3.702421
    116          1           0       10.503692    0.440415   -4.297294
    117          1           0        9.042649   -1.107098   -4.885351
    118          7           0        9.339182    1.975349   -2.729907
    119          1           0        9.816850    2.448988   -3.484630
    120          1           0        9.459198    2.416411   -1.826586
    121          6           0        9.372245    0.588653   -2.756091
    122          8           0        6.434880   -1.964755   -6.253599
    123          1           0        1.832396    3.214059   -6.905709
 ---------------------------------------------------------------------

 SCF Done:  E(RB3LYP) =  -2974.03764289     A.U. after    3 cycles

 Alpha  occ. eigenvalues --  -19.26441 -19.23307 -19.22896 -19.22003 -19.20556
 Alpha  occ. eigenvalues --  -19.19421 -19.18359 -19.17874 -19.17750 -19.17477
 Alpha  occ. eigenvalues --  -19.16415 -14.59051 -14.48911 -14.45094 -14.43071
 Alpha  occ. eigenvalues --  -14.42085 -14.41752 -14.41278 -14.40758 -14.40244
 Alpha  occ. eigenvalues --  -14.35075 -10.43275 -10.40667 -10.38909 -10.36483
 Alpha  occ. eigenvalues --  -10.35767 -10.35309 -10.34847 -10.34737 -10.34733
 Alpha  occ. eigenvalues --  -10.34654 -10.34518 -10.34121 -10.32066 -10.31843
 Alpha  occ. eigenvalues --  -10.30919 -10.30161 -10.30112 -10.29997 -10.29952
 Alpha  occ. eigenvalues --  -10.29867 -10.29716 -10.29246 -10.29109 -10.28055
 Alpha  occ. eigenvalues --  -10.27723 -10.26571 -10.26079 -10.25463 -10.24747
 Alpha  occ. eigenvalues --  -10.24325 -10.24280 -10.24252 -10.24245 -10.24063
 Alpha  occ. eigenvalues --  -10.24037 -10.23898 -10.23462 -10.23426 -10.23051
 Alpha  occ. eigenvalues --  -10.22056 -10.21578  -1.18854  -1.14058  -1.13854
 Alpha  occ. eigenvalues --   -1.13111  -1.12108  -1.11389  -1.10891  -1.10312
 Alpha  occ. eigenvalues --   -1.09675  -1.09000  -1.05674  -1.05007  -1.04195
 Alpha  occ. eigenvalues --   -1.03512  -1.01777  -0.99776  -0.98803  -0.98335
 Alpha  occ. eigenvalues --   -0.97846  -0.97390  -0.94284  -0.92991  -0.90453
 Alpha  occ. eigenvalues --   -0.90057  -0.88766  -0.86893  -0.86296  -0.85624
 Alpha  occ. eigenvalues --   -0.85429  -0.85106  -0.83896  -0.83384  -0.81071
 Alpha  occ. eigenvalues --   -0.79823  -0.79786  -0.79558  -0.78277  -0.76789
 Alpha  occ. eigenvalues --   -0.76744  -0.74497  -0.74065  -0.72748  -0.72697
 Alpha  occ. eigenvalues --   -0.72129  -0.72078  -0.71256  -0.70936  -0.70307
 Alpha  occ. eigenvalues --   -0.69324  -0.68831  -0.67637  -0.66926  -0.66436
 Alpha  occ. eigenvalues --   -0.65932  -0.65607  -0.65071  -0.64254  -0.64198
 Alpha  occ. eigenvalues --   -0.64114  -0.63725  -0.63437  -0.63394  -0.62738
 Alpha  occ. eigenvalues --   -0.62377  -0.61293  -0.60684  -0.60197  -0.59859
 Alpha  occ. eigenvalues --   -0.59405  -0.59389  -0.58453  -0.57928  -0.57468
 Alpha  occ. eigenvalues --   -0.57114  -0.56834  -0.56212  -0.55650  -0.55064
 Alpha  occ. eigenvalues --   -0.54702  -0.54330  -0.54104  -0.53650  -0.53367
 Alpha  occ. eigenvalues --   -0.53121  -0.52981  -0.52859  -0.52543  -0.52334
 Alpha  occ. eigenvalues --   -0.52134  -0.51980  -0.51696  -0.51633  -0.51514
 Alpha  occ. eigenvalues --   -0.51323  -0.51191  -0.51012  -0.50626  -0.50036
 Alpha  occ. eigenvalues --   -0.49874  -0.49715  -0.49501  -0.49185  -0.48695
 Alpha  occ. eigenvalues --   -0.48574  -0.48475  -0.48073  -0.47923  -0.47872
 Alpha  occ. eigenvalues --   -0.47279  -0.47249  -0.47071  -0.47033  -0.46785
 Alpha  occ. eigenvalues --   -0.46288  -0.46102  -0.45995  -0.45573  -0.45490
 Alpha  occ. eigenvalues --   -0.45351  -0.45326  -0.45144  -0.44951  -0.44807
 Alpha  occ. eigenvalues --   -0.44523  -0.44127  -0.43820  -0.43499  -0.43390
 Alpha  occ. eigenvalues --   -0.42971  -0.42860  -0.42826  -0.42727  -0.41615
 Alpha  occ. eigenvalues --   -0.41538  -0.41294  -0.41017  -0.41000  -0.40719
 Alpha  occ. eigenvalues --   -0.40366  -0.39798  -0.39548  -0.38976  -0.38747
 Alpha  occ. eigenvalues --   -0.38724  -0.38565  -0.37937  -0.37772  -0.37344
 Alpha  occ. eigenvalues --   -0.37296  -0.36433  -0.36138  -0.36017  -0.35437
 Alpha  occ. eigenvalues --   -0.35177  -0.33743  -0.33705  -0.33222  -0.33077
 Alpha  occ. eigenvalues --   -0.32796  -0.32371  -0.31942  -0.31577  -0.31146
 Alpha  occ. eigenvalues --   -0.31080  -0.30992  -0.30292  -0.30064  -0.29947
 Alpha  occ. eigenvalues --   -0.28333  -0.26785
 Alpha virt. eigenvalues --   -0.12631  -0.12174  -0.12000  -0.08547  -0.07595
 Alpha virt. eigenvalues --   -0.05464  -0.05060  -0.04577  -0.04148  -0.04121
 Alpha virt. eigenvalues --   -0.03359  -0.03045  -0.02907  -0.02307  -0.01688

 Mulliken charges:
               1
     1  N   -0.757420
     2  H    0.433593
     3  H    0.409665
     4  H    0.404014
     5  C   -0.112364
     6  H    0.227653
     7  C    0.656796
     8  C   -0.393667
     9  H    0.188728
    10  H    0.209347
    11  O   -0.541111
    12  C    0.139108
    13  C   -0.234850
    14  H    0.141196
    15  C   -0.184018
    16  H    0.165314
    17  C   -0.118718
    18  H    0.165100
    19  C   -0.125187
    20  H    0.165047
    21  C   -0.121317
    22  H    0.167568
    23  N   -0.608974
    24  H    0.376897
    25  C   -0.064053
    26  H    0.201301
    27  C    0.635020
    28  C   -0.453611
    29  H    0.186822
    30  H    0.170903
    31  H    0.184199
    32  O   -0.559045
    33  N   -0.619990
    34  H    0.371137
    35  C   -0.044156
    36  H    0.186359
    37  C    0.625077
    38  C   -0.456011
    39  H    0.172355
    40  H    0.165010
    41  H    0.179016
    42  O   -0.536121
    43  N   -0.603747
    44  H    0.354118
    45  C   -0.070367
    46  H    0.188355
    47  C    0.621471
    48  C   -0.372632
    49  H    0.157579
    50  H    0.171497
    51  O   -0.542095
    52  C    0.188450
    53  C   -0.168423
    54  H    0.131604
    55  C   -0.197726
    56  H    0.126657
    57  C   -0.158034
    58  H    0.146262
    59  C   -0.196320
    60  H    0.119734
    61  O   -0.641462
    62  H    0.408067
    63  C    0.347193
    64  N   -0.596411
    65  H    0.356257
    66  C   -0.081556
    67  H    0.183945
    68  C    0.617860
    69  C   -0.256672
    70  H    0.145494
    71  H    0.141850
    72  O   -0.541529
    73  C   -0.065665
    74  H    0.132827
    75  C   -0.444615
    76  H    0.142546
    77  H    0.144598
    78  H    0.143249
    79  C   -0.463896
    80  H    0.132918
    81  H    0.174709
    82  H    0.142221
    83  N   -0.603411
    84  H    0.354010
    85  C   -0.070944
    86  H    0.186569
    87  C    0.623188
    88  C   -0.274951
    89  H    0.174289
    90  H    0.167065
    91  O   -0.561874
    92  C   -0.337738
    93  H    0.177743
    94  H    0.190134
    95  C    0.565321
    96  O   -0.452891
    97  O   -0.564866
    98  N   -0.602185
    99  H    0.356787
   100  C   -0.085063
   101  H    0.192861
   102  C    0.600598
   103  C   -0.267947
   104  H    0.164780
   105  H    0.154427
   106  O   -0.605888
   107  C   -0.277785
   108  H    0.143420
   109  H    0.159751
   110  C   -0.129566
   111  H    0.184716
   112  H    0.148701
   113  N   -0.595425
   114  H    0.344379
   115  N   -0.723062
   116  H    0.292608
   117  H    0.467283
   118  N   -0.751361
   119  H    0.335950
   120  H    0.336836
   121  C    0.635475
   122  O   -0.478956
   123  H    0.412099
 Sum of Mulliken charges =   1.00000

 Dipole moment (field-independent basis, Debye):
    X=            -34.8752    Y=             13.0337    Z=             33.6726  Tot=             50.1996
 Quadrupole moment (field-independent basis, Debye-Ang):
   XX=            185.1075   YY=           -332.9150   ZZ=           -141.8047
   XY=            -76.1187   XZ=           -317.2577   YZ=             34.2047

 Normal termination of Gaussian 16 at Mon Jul 18 02:05:36 2022.
