 Gaussian 16, Revision C.01,
 Gaussian 16:  ES64L-G16RevC.01  3-Jul-2019

 -------------------------------------------------------------------
 # B3LYP/6-31G* guess=read geom=check nosymm integral(ultrafinegrid)
 -------------------------------------------------------------------

 ------------------------------------------------------
 Candidate Structure: Conf:102 Charge calc in gas phase
 ------------------------------------------------------
 Structure from the checkpoint file:  "conf-102.chk"
 Charge =  1 Multiplicity = 1

                          Input orientation:
 ---------------------------------------------------------------------
 Center     Atomic      Atomic             Coordinates (Angstroms)
 Number     Number       Type             X           Y           Z
 ---------------------------------------------------------------------
      1          7           0      -12.383092    6.965000    2.913453
      2          1           0      -12.611916    7.638713    2.177477
      3          1           0      -12.893957    7.226485    3.770366
      4          1           0      -12.626671    5.996971    2.565430
      5          6           0      -10.898189    6.856665    3.172247
      6          1           0      -10.422206    7.770365    2.810689
      7          6           0      -10.487963    5.608021    2.347844
      8          6           0      -10.641295    6.665544    4.688274
      9          1           0       -9.555811    6.679802    4.833199
     10          1           0      -10.985741    5.665319    4.977248
     11          8           0      -11.396537    4.850379    1.972872
     12          6           0      -11.323918    7.725214    5.528035
     13          6           0      -10.786054    9.016671    5.634964
     14          1           0       -9.834727    9.248785    5.160677
     15          6           0      -12.541524    7.441980    6.168423
     16          1           0      -12.946067    6.430945    6.140211
     17          6           0      -11.449811   10.000371    6.366396
     18          1           0      -11.015666   10.992033    6.453050
     19          6           0      -13.209457    8.431452    6.897845
     20          1           0      -14.142526    8.193845    7.400069
     21          6           0      -12.665061    9.711260    6.994899
     22          1           0      -13.177125   10.478948    7.567021
     23          7           0       -9.188882    5.440092    2.147052
     24          1           0       -8.474609    6.070751    2.526492
     25          6           0       -8.576571    4.275790    1.504940
     26          1           0       -9.005120    3.366871    1.942800
     27          6           0       -7.078881    4.387014    1.888801
     28          6           0       -8.796404    4.267858   -0.015873
     29          1           0       -8.331909    3.385924   -0.466997
     30          1           0       -8.357669    5.159830   -0.474220
     31          1           0       -9.866330    4.238970   -0.238119
     32          8           0       -6.667907    5.406128    2.457851
     33          7           0       -6.315594    3.341557    1.555957
     34          1           0       -6.672680    2.542747    1.031902
     35          6           0       -4.868074    3.296940    1.730690
     36          1           0       -4.447840    4.260262    1.419233
     37          6           0       -4.384977    2.181918    0.776138
     38          6           0       -4.467299    3.018529    3.189565
     39          1           0       -3.378244    2.999191    3.298810
     40          1           0       -4.864825    2.053238    3.519492
     41          1           0       -4.862968    3.807331    3.834706
     42          8           0       -5.198678    1.411935    0.255934
     43          7           0       -3.057545    2.128382    0.576298
     44          1           0       -2.411367    2.690215    1.127789
     45          6           0       -2.398625    1.047512   -0.146030
     46          1           0       -2.865268    0.100885    0.157003
     47          6           0       -0.937745    1.055366    0.362787
     48          6           0       -2.557718    1.163643   -1.689630
     49          1           0       -2.318228    0.185560   -2.125291
     50          1           0       -3.628821    1.311424   -1.868228
     51          8           0       -0.587622    1.866318    1.223325
     52          6           0       -1.723503    2.226261   -2.373823
     53          6           0       -1.949592    3.600141   -2.186168
     54          1           0       -2.767423    3.927900   -1.549913
     55          6           0       -0.680671    1.850794   -3.228654
     56          1           0       -0.474316    0.799722   -3.404783
     57          6           0       -1.141142    4.559591   -2.789096
     58          1           0       -1.308930    5.619865   -2.626727
     59          6           0        0.128062    2.799174   -3.851031
     60          1           0        0.921083    2.480126   -4.522934
     61          8           0        0.706831    5.127199   -4.163223
     62          1           0        1.485922    4.704466   -4.569631
     63          6           0       -0.081259    4.161735   -3.614436
     64          7           0       -0.121550    0.104923   -0.147661
     65          1           0       -0.391973   -0.383578   -0.994971
     66          6           0        1.318432    0.094246    0.103457
     67          1           0        1.540472    0.976948    0.706405
     68          6           0        2.017121    0.190780   -1.264710
     69          6           0        1.776439   -1.189040    0.831839
     70          1           0        1.553418   -2.043854    0.179037
     71          1           0        2.871021   -1.150245    0.928466
     72          8           0        1.507356   -0.316047   -2.266029
     73          6           0        1.153479   -1.425691    2.220973
     74          1           0        0.061243   -1.444584    2.096902
     75          6           0        1.589646   -2.798600    2.755734
     76          1           0        2.676825   -2.836687    2.902676
     77          1           0        1.117961   -3.011134    3.721991
     78          1           0        1.318075   -3.605445    2.064514
     79          6           0        1.500422   -0.312016    3.221142
     80          1           0        2.588194   -0.209037    3.332749
     81          1           0        1.091082    0.655844    2.914576
     82          1           0        1.090174   -0.543837    4.211101
     83          7           0        3.202778    0.839782   -1.264016
     84          1           0        3.636180    1.144135   -0.397808
     85          6           0        4.059107    0.965222   -2.434539
     86          1           0        3.729952    0.220270   -3.165300
     87          6           0        5.497433    0.701835   -1.946824
     88          6           0        3.934257    2.389253   -3.035492
     89          1           0        2.868961    2.628925   -3.099748
     90          1           0        4.388994    3.097680   -2.332598
     91          8           0        5.837068    1.094252   -0.827486
     92          6           0        4.591356    2.523463   -4.424649
     93          1           0        4.060541    1.888918   -5.145755
     94          1           0        5.636745    2.208767   -4.394343
     95          6           0        4.590516    3.944094   -4.939777
     96          8           0        5.554308    4.658031   -5.064807
     97          8           0        3.333824    4.391050   -5.282446
     98          7           0        6.314405    0.078591   -2.815182
     99          1           0        5.983700   -0.291152   -3.701891
    100          6           0        7.731931   -0.175743   -2.577524
    101          1           0        8.170643    0.695884   -2.087872
    102          6           0        8.424436   -0.393092   -3.940056
    103          6           0        7.932057   -1.430835   -1.672740
    104          1           0        7.125122   -2.141738   -1.892407
    105          1           0        7.797560   -1.121301   -0.631432
    106          8           0        9.625287   -0.099205   -4.035371
    107          6           0        9.295260   -2.134477   -1.847625
    108          1           0        9.541957   -2.680972   -0.929839
    109          1           0       10.068476   -1.375826   -2.002391
    110          6           0        9.303990   -3.124075   -3.044717
    111          1           0        8.469307   -2.924917   -3.714793
    112          1           0        9.197968   -4.155348   -2.687378
    113          7           0       10.538328   -3.054116   -3.842526
    114          1           0       11.398481   -3.017777   -3.311477
    115          7           0        9.595176   -2.479178   -5.911287
    116          1           0        9.788231   -2.383645   -6.899970
    117          1           0        8.777567   -1.880714   -5.539718
    118          7           0       11.879260   -2.852966   -5.718839
    119          1           0       12.094872   -2.202994   -6.462496
    120          1           0       12.668105   -3.111630   -5.142602
    121          6           0       10.643044   -2.754306   -5.143791
    122          8           0        7.700828   -0.999334   -4.815457
    123          1           0        3.471256    5.300887   -5.612160
 ---------------------------------------------------------------------

 SCF Done:  E(RB3LYP) =  -2974.03482573     A.U. after    3 cycles

 Alpha  occ. eigenvalues --  -19.25979 -19.24963 -19.21239 -19.20274 -19.18825
 Alpha  occ. eigenvalues --  -19.18661 -19.17636 -19.16162 -19.14789 -19.12382
 Alpha  occ. eigenvalues --  -19.11043 -14.59161 -14.48570 -14.44416 -14.44249
 Alpha  occ. eigenvalues --  -14.44218 -14.42161 -14.41238 -14.40637 -14.40465
 Alpha  occ. eigenvalues --  -14.39033 -10.42843 -10.40283 -10.39549 -10.38219
 Alpha  occ. eigenvalues --  -10.36843 -10.35739 -10.34672 -10.34115 -10.33815
 Alpha  occ. eigenvalues --  -10.33299 -10.32074 -10.32053 -10.31106 -10.30795
 Alpha  occ. eigenvalues --  -10.30424 -10.30127 -10.30007 -10.29752 -10.29415
 Alpha  occ. eigenvalues --  -10.29414 -10.28218 -10.27783 -10.27701 -10.27692
 Alpha  occ. eigenvalues --  -10.27688 -10.25214 -10.24628 -10.24579 -10.24341
 Alpha  occ. eigenvalues --  -10.24139 -10.23041 -10.22991 -10.22881 -10.22818
 Alpha  occ. eigenvalues --  -10.22766 -10.22363 -10.22187 -10.22059 -10.21975
 Alpha  occ. eigenvalues --  -10.21035 -10.20606  -1.18389  -1.15167  -1.13431
 Alpha  occ. eigenvalues --   -1.12905  -1.10698  -1.09412  -1.08601  -1.08072
 Alpha  occ. eigenvalues --   -1.08013  -1.06624  -1.06174  -1.05230  -1.05026
 Alpha  occ. eigenvalues --   -1.01104  -0.98925  -0.97938  -0.97718  -0.97441
 Alpha  occ. eigenvalues --   -0.96913  -0.96552  -0.95481  -0.94711  -0.92907
 Alpha  occ. eigenvalues --   -0.88927  -0.88509  -0.86111  -0.85706  -0.85559
 Alpha  occ. eigenvalues --   -0.84782  -0.84285  -0.83480  -0.82371  -0.80034
 Alpha  occ. eigenvalues --   -0.79383  -0.78422  -0.78144  -0.77199  -0.76437
 Alpha  occ. eigenvalues --   -0.76085  -0.73700  -0.73390  -0.72862  -0.71906
 Alpha  occ. eigenvalues --   -0.71745  -0.71485  -0.71313  -0.70125  -0.69962
 Alpha  occ. eigenvalues --   -0.69491  -0.69234  -0.68127  -0.66447  -0.65904
 Alpha  occ. eigenvalues --   -0.65716  -0.65519  -0.64791  -0.64457  -0.64025
 Alpha  occ. eigenvalues --   -0.63340  -0.62772  -0.62693  -0.62552  -0.61842
 Alpha  occ. eigenvalues --   -0.61696  -0.61569  -0.60999  -0.60046  -0.58931
 Alpha  occ. eigenvalues --   -0.58885  -0.57705  -0.57313  -0.57172  -0.56787
 Alpha  occ. eigenvalues --   -0.56559  -0.56280  -0.55668  -0.55359  -0.54617
 Alpha  occ. eigenvalues --   -0.54422  -0.54340  -0.53824  -0.53291  -0.53139
 Alpha  occ. eigenvalues --   -0.53127  -0.52955  -0.52638  -0.52430  -0.52215
 Alpha  occ. eigenvalues --   -0.51874  -0.51749  -0.51214  -0.50988  -0.50684
 Alpha  occ. eigenvalues --   -0.50589  -0.50514  -0.50109  -0.49874  -0.49715
 Alpha  occ. eigenvalues --   -0.49454  -0.49037  -0.48817  -0.48335  -0.48229
 Alpha  occ. eigenvalues --   -0.47862  -0.47746  -0.47392  -0.47238  -0.47006
 Alpha  occ. eigenvalues --   -0.46783  -0.46583  -0.46475  -0.46145  -0.45602
 Alpha  occ. eigenvalues --   -0.45560  -0.45448  -0.45263  -0.44977  -0.44907
 Alpha  occ. eigenvalues --   -0.44777  -0.44334  -0.44152  -0.43996  -0.43785
 Alpha  occ. eigenvalues --   -0.43524  -0.43469  -0.43061  -0.42903  -0.42361
 Alpha  occ. eigenvalues --   -0.42034  -0.41800  -0.41710  -0.41385  -0.41279
 Alpha  occ. eigenvalues --   -0.40594  -0.40519  -0.40389  -0.40046  -0.39892
 Alpha  occ. eigenvalues --   -0.39518  -0.39232  -0.38653  -0.38524  -0.37847
 Alpha  occ. eigenvalues --   -0.37125  -0.36667  -0.36644  -0.36604  -0.36494
 Alpha  occ. eigenvalues --   -0.36279  -0.36244  -0.36023  -0.35949  -0.35479
 Alpha  occ. eigenvalues --   -0.34861  -0.34412  -0.32801  -0.32398  -0.32203
 Alpha  occ. eigenvalues --   -0.32184  -0.31659  -0.31334  -0.30469  -0.29334
 Alpha  occ. eigenvalues --   -0.29087  -0.28588  -0.28485  -0.27684  -0.26943
 Alpha  occ. eigenvalues --   -0.25075  -0.24710
 Alpha virt. eigenvalues --   -0.12790  -0.12170  -0.10609  -0.09531  -0.06789
 Alpha virt. eigenvalues --   -0.04779  -0.04577  -0.04294  -0.04239  -0.03714
 Alpha virt. eigenvalues --   -0.03280  -0.02425  -0.02290  -0.01931  -0.01580

 Mulliken charges:
               1
     1  N   -0.751201
     2  H    0.415054
     3  H    0.404284
     4  H    0.426974
     5  C   -0.111472
     6  H    0.213313
     7  C    0.656876
     8  C   -0.385379
     9  H    0.210982
    10  H    0.193945
    11  O   -0.543653
    12  C    0.138473
    13  C   -0.181523
    14  H    0.148324
    15  C   -0.229856
    16  H    0.151035
    17  C   -0.122345
    18  H    0.168255
    19  C   -0.120184
    20  H    0.167388
    21  C   -0.123681
    22  H    0.169358
    23  N   -0.613327
    24  H    0.373854
    25  C   -0.052302
    26  H    0.195642
    27  C    0.629919
    28  C   -0.457930
    29  H    0.183188
    30  H    0.170658
    31  H    0.187048
    32  O   -0.551759
    33  N   -0.620727
    34  H    0.366562
    35  C   -0.045531
    36  H    0.186631
    37  C    0.618550
    38  C   -0.454687
    39  H    0.173316
    40  H    0.164642
    41  H    0.181373
    42  O   -0.547179
    43  N   -0.617060
    44  H    0.366631
    45  C   -0.043507
    46  H    0.184804
    47  C    0.625559
    48  C   -0.378891
    49  H    0.148562
    50  H    0.184977
    51  O   -0.540070
    52  C    0.164767
    53  C   -0.183636
    54  H    0.112740
    55  C   -0.199278
    56  H    0.153246
    57  C   -0.158028
    58  H    0.134207
    59  C   -0.206400
    60  H    0.135236
    61  O   -0.675935
    62  H    0.435894
    63  C    0.349911
    64  N   -0.599180
    65  H    0.350103
    66  C   -0.085794
    67  H    0.187914
    68  C    0.633876
    69  C   -0.256514
    70  H    0.145064
    71  H    0.143940
    72  O   -0.550259
    73  C   -0.065374
    74  H    0.127465
    75  C   -0.444034
    76  H    0.143756
    77  H    0.144822
    78  H    0.141588
    79  C   -0.467345
    80  H    0.139042
    81  H    0.172271
    82  H    0.142020
    83  N   -0.605337
    84  H    0.353441
    85  C   -0.054482
    86  H    0.173550
    87  C    0.619957
    88  C   -0.282929
    89  H    0.175372
    90  H    0.172638
    91  O   -0.551229
    92  C   -0.353554
    93  H    0.173612
    94  H    0.199876
    95  C    0.573471
    96  O   -0.431100
    97  O   -0.593984
    98  N   -0.614934
    99  H    0.347925
   100  C   -0.001722
   101  H    0.174064
   102  C    0.570995
   103  C   -0.283659
   104  H    0.140664
   105  H    0.167866
   106  O   -0.574364
   107  C   -0.300277
   108  H    0.140376
   109  H    0.185265
   110  C   -0.157477
   111  H    0.207040
   112  H    0.164522
   113  N   -0.584433
   114  H    0.339719
   115  N   -0.764428
   116  H    0.339676
   117  H    0.437817
   118  N   -0.760191
   119  H    0.364029
   120  H    0.351232
   121  C    0.784624
   122  O   -0.644993
   123  H    0.421371
 Sum of Mulliken charges =   1.00000

 Dipole moment (field-independent basis, Debye):
    X=            -32.7532    Y=             20.7039    Z=              8.9450  Tot=             39.7673
 Quadrupole moment (field-independent basis, Debye-Ang):
   XX=            365.6714   YY=           -130.5864   ZZ=           -259.1211
   XY=           -429.3081   XZ=           -250.1043   YZ=            134.3715

 Normal termination of Gaussian 16 at Mon Jul 18 02:04:28 2022.
