 Gaussian 16, Revision C.01,
 Gaussian 16:  ES64L-G16RevC.01  3-Jul-2019

 -------------------------------------------------------------------
 # B3LYP/6-31G* guess=read geom=check nosymm integral(ultrafinegrid)
 -------------------------------------------------------------------

 ------------------------------------------------------
 Candidate Structure: Conf:404 Charge calc in gas phase
 ------------------------------------------------------
 Structure from the checkpoint file:  "conf-404.chk"
 Charge =  1 Multiplicity = 1

                          Input orientation:
 ---------------------------------------------------------------------
 Center     Atomic      Atomic             Coordinates (Angstroms)
 Number     Number       Type             X           Y           Z
 ---------------------------------------------------------------------
      1          7           0        0.680196   -2.972051    2.764039
      2          1           0        0.661059   -3.490551    3.648219
      3          1           0        0.608263   -3.584139    1.938814
      4          1           0        1.581743   -2.461965    2.663384
      5          6           0       -0.459888   -1.983808    2.698319
      6          1           0       -1.370228   -2.574482    2.842883
      7          6           0       -0.405840   -1.487569    1.235616
      8          6           0       -0.312392   -0.946884    3.828811
      9          1           0        0.525152   -0.279940    3.595417
     10          1           0       -1.225972   -0.335410    3.833236
     11          8           0        0.089147   -2.234248    0.393266
     12          6           0       -0.100018   -1.584604    5.172050
     13          6           0        1.017612   -1.438391    5.965154
     14          1           0        1.903247   -0.838401    5.801982
     15          6           0       -1.000109   -2.468051    5.881134
     16          6           0       -0.353436   -2.820123    7.097569
     17          6           0       -2.286339   -2.982832    5.624569
     18          1           0       -2.832523   -2.710171    4.724133
     19          7           0        0.871085   -2.177910    7.113494
     20          1           0        1.529122   -2.196161    7.878722
     21          6           0       -2.205131   -4.167382    7.753215
     22          1           0       -2.692302   -4.826815    8.464838
     23          6           0       -0.941267   -3.669081    8.041284
     24          1           0       -0.433027   -3.924765    8.966551
     25          6           0       -2.872870   -3.825427    6.558764
     26          1           0       -3.866365   -4.222690    6.374230
     27          7           0       -0.855814   -0.244908    0.973510
     28          1           0       -1.342406    0.267415    1.696154
     29          6           0       -0.687679    0.392401   -0.353145
     30          1           0       -0.916432    1.449408   -0.169435
     31          6           0        0.823448    0.312477   -0.732589
     32          6           0       -1.615663   -0.129440   -1.487095
     33          1           0       -1.024805   -0.834485   -2.079919
     34          8           0        1.219920   -0.056187   -1.821007
     35          6           0       -2.061990    1.032711   -2.406995
     36          1           0       -2.707014    0.600877   -3.182229
     37          1           0       -2.707183    1.709263   -1.824744
     38          6           0       -2.856622   -0.858899   -0.951099
     39          1           0       -3.463146   -0.217042   -0.298893
     40          1           0       -3.492162   -1.160795   -1.789676
     41          1           0       -2.596228   -1.767640   -0.400249
     42          6           0       -0.956082    1.844909   -3.090956
     43          1           0       -1.400136    2.585142   -3.765139
     44          1           0       -0.290220    1.203120   -3.674330
     45          1           0       -0.334415    2.395670   -2.374348
     46          7           0        1.669657    0.746806    0.265271
     47          1           0        1.270888    0.900290    1.181809
     48          6           0        3.092064    0.468104    0.236520
     49          1           0        3.360976    0.264720   -0.803327
     50          6           0        3.401790   -0.779914    1.060976
     51          6           0        3.925027    1.647575    0.794058
     52          1           0        3.566580    1.870858    1.805888
     53          1           0        4.966888    1.325706    0.897781
     54          8           0        2.702867   -1.204172    1.974916
     55          6           0        3.854865    2.901897   -0.086643
     56          1           0        2.805582    3.166650   -0.272960
     57          1           0        4.298392    2.685713   -1.068267
     58          6           0        4.581280    4.118255    0.520533
     59          1           0        5.620316    3.861474    0.742291
     60          1           0        4.606373    4.925287   -0.219726
     61          7           0        3.964707    4.658297    1.736534
     62          1           0        3.033786    5.028641    1.583113
     63          7           0        5.375762    3.560332    3.245632
     64          1           0        5.452302    3.289162    4.220191
     65          1           0        6.120757    4.197684    2.982071
     66          7           0        3.176664    3.916940    3.881153
     67          1           0        2.269620    4.219602    3.518620
     68          6           0        4.093831    4.054497    2.988710
     69          8           0        4.563990   -1.334245    0.718717
     70          1           0        4.746319   -2.084994    1.315843
 ---------------------------------------------------------------------

 SCF Done:  E(RB3LYP) =  -1582.12737760     A.U. after    2 cycles

 Alpha  occ. eigenvalues --  -19.32548 -19.27917 -19.25670 -19.21893 -14.58504
 Alpha  occ. eigenvalues --  -14.50044 -14.48773 -14.46418 -14.42515 -14.41286
 Alpha  occ. eigenvalues --  -14.35895 -10.45301 -10.43084 -10.39937 -10.39223
 Alpha  occ. eigenvalues --  -10.35373 -10.34657 -10.34573 -10.33942 -10.33374
 Alpha  occ. eigenvalues --  -10.32253 -10.30328 -10.30130 -10.29263 -10.28881
 Alpha  occ. eigenvalues --  -10.28859 -10.28599 -10.27957 -10.27785 -10.27781
 Alpha  occ. eigenvalues --  -10.27576 -10.26053 -10.25945 -10.24196  -1.23815
 Alpha  occ. eigenvalues --   -1.18391  -1.14815  -1.13986  -1.12889  -1.08738
 Alpha  occ. eigenvalues --   -1.06176  -1.04809  -1.03044  -0.96047  -0.94513
 Alpha  occ. eigenvalues --   -0.93406  -0.91562  -0.90555  -0.89287  -0.88073
 Alpha  occ. eigenvalues --   -0.84282  -0.83635  -0.83144  -0.81913  -0.80092
 Alpha  occ. eigenvalues --   -0.79408  -0.77137  -0.74032  -0.73670  -0.72695
 Alpha  occ. eigenvalues --   -0.72438  -0.71275  -0.70416  -0.69553  -0.69262
 Alpha  occ. eigenvalues --   -0.68531  -0.67587  -0.67420  -0.65773  -0.64464
 Alpha  occ. eigenvalues --   -0.64365  -0.63604  -0.62546  -0.61825  -0.61595
 Alpha  occ. eigenvalues --   -0.59682  -0.58877  -0.58102  -0.58018  -0.57383
 Alpha  occ. eigenvalues --   -0.57182  -0.56695  -0.55909  -0.55124  -0.54368
 Alpha  occ. eigenvalues --   -0.54218  -0.53592  -0.53290  -0.53158  -0.52933
 Alpha  occ. eigenvalues --   -0.52167  -0.51948  -0.51763  -0.51654  -0.51234
 Alpha  occ. eigenvalues --   -0.50485  -0.50169  -0.49429  -0.49012  -0.48766
 Alpha  occ. eigenvalues --   -0.48617  -0.48317  -0.47703  -0.46002  -0.45326
 Alpha  occ. eigenvalues --   -0.45120  -0.44957  -0.44883  -0.43696  -0.43605
 Alpha  occ. eigenvalues --   -0.43479  -0.43374  -0.43186  -0.41908  -0.41054
 Alpha  occ. eigenvalues --   -0.40846  -0.40401  -0.39441  -0.39053  -0.37889
 Alpha  occ. eigenvalues --   -0.36090  -0.35045  -0.33997  -0.32996  -0.32533
 Alpha  occ. eigenvalues --   -0.31117  -0.29848
 Alpha virt. eigenvalues --   -0.12843  -0.12029  -0.11315  -0.09206  -0.07508
 Alpha virt. eigenvalues --   -0.07232  -0.05940  -0.04541  -0.04195  -0.03270
 Alpha virt. eigenvalues --   -0.02618  -0.02411  -0.02062  -0.01471  -0.00897

 Mulliken charges:
               1
     1  N   -0.746837
     2  H    0.410418
     3  H    0.418115
     4  H    0.439713
     5  C   -0.133306
     6  H    0.228231
     7  C    0.679596
     8  C   -0.381261
     9  H    0.185128
    10  H    0.181108
    11  O   -0.528399
    12  C   -0.001702
    13  C    0.004511
    14  H    0.179847
    15  C    0.079732
    16  C    0.310792
    17  C   -0.224919
    18  H    0.122161
    19  N   -0.678471
    20  H    0.350067
    21  C   -0.147827
    22  H    0.156774
    23  C   -0.153857
    24  H    0.152396
    25  C   -0.132828
    26  H    0.150172
    27  N   -0.641933
    28  H    0.351229
    29  C   -0.052402
    30  H    0.173610
    31  C    0.626895
    32  C   -0.079626
    33  H    0.185279
    34  O   -0.482718
    35  C   -0.267554
    36  H    0.154723
    37  H    0.127790
    38  C   -0.460393
    39  H    0.132034
    40  H    0.171661
    41  H    0.142916
    42  C   -0.452694
    43  H    0.157183
    44  H    0.178805
    45  H    0.127359
    46  N   -0.592023
    47  H    0.326556
    48  C   -0.064178
    49  H    0.222480
    50  C    0.621200
    51  C   -0.284312
    52  H    0.166753
    53  H    0.176466
    54  O   -0.533289
    55  C   -0.264605
    56  H    0.143015
    57  H    0.157405
    58  C   -0.154756
    59  H    0.166357
    60  H    0.168000
    61  N   -0.576776
    62  H    0.312570
    63  N   -0.737881
    64  H    0.339154
    65  H    0.332873
    66  N   -0.642980
    67  H    0.256988
    68  C    0.548356
    69  O   -0.523034
    70  H    0.424144
 Sum of Mulliken charges =   1.00000

 Dipole moment (field-independent basis, Debye):
    X=              5.3726    Y=             -5.6337    Z=             15.5419  Tot=             17.3826
 Quadrupole moment (field-independent basis, Debye-Ang):
   XX=           -146.4622   YY=           -151.5066   ZZ=           -124.3412
   XY=              5.2246   XZ=             18.3204   YZ=            -52.0529

 Normal termination of Gaussian 16 at Thu May 26 00:32:30 2022.
