 Gaussian 16, Revision C.01,
 Gaussian 16:  ES64L-G16RevC.01  3-Jul-2019

 -------------------------------------------------------------------
 # B3LYP/6-31G* guess=read geom=check nosymm integral(ultrafinegrid)
 -------------------------------------------------------------------

 ------------------------------------------------------
 Candidate Structure: Conf:727 Charge calc in gas phase
 ------------------------------------------------------
 Structure from the checkpoint file:  "conf-727.chk"
 Charge =  1 Multiplicity = 1

                          Input orientation:
 ---------------------------------------------------------------------
 Center     Atomic      Atomic             Coordinates (Angstroms)
 Number     Number       Type             X           Y           Z
 ---------------------------------------------------------------------
      1          7           0       -0.270558    0.106715    3.908814
      2          1           0        0.741165    0.130932    3.687143
      3          1           0       -0.642842    1.045487    3.690671
      4          1           0       -0.455489   -0.148588    4.889511
      5          6           0       -0.995735   -0.846390    2.988967
      6          1           0       -0.446575   -1.791080    3.007347
      7          6           0       -0.921346   -0.143784    1.621213
      8          6           0       -2.435496   -1.014941    3.496266
      9          1           0       -2.934155   -0.040635    3.407264
     10          1           0       -2.958904   -1.681015    2.796742
     11          8           0       -1.029520    1.086741    1.607248
     12          6           0       -2.527682   -1.510368    4.916257
     13          6           0       -1.635571   -2.307881    5.608892
     14          1           0       -0.706147   -2.765019    5.292684
     15          6           0       -3.642940   -1.277106    5.801961
     16          6           0       -3.361969   -1.959082    7.014348
     17          6           0       -4.846490   -0.556933    5.684567
     18          1           0       -5.096208   -0.030476    4.767010
     19          7           0       -2.133988   -2.574455    6.864264
     20          1           0       -1.675918   -3.142346    7.561374
     21          6           0       -5.417606   -1.221899    7.959385
     22          1           0       -6.124329   -1.187747    8.782942
     23          6           0       -4.238516   -1.939469    8.105457
     24          1           0       -4.009445   -2.466727    9.026976
     25          6           0       -5.719439   -0.537526    6.761992
     26          1           0       -6.653914    0.010002    6.686320
     27          7           0       -0.734779   -0.920524    0.541904
     28          1           0       -0.505168   -1.898033    0.680300
     29          6           0       -0.371843   -0.353319   -0.779750
     30          1           0       -0.884068    0.610196   -0.846855
     31          6           0        1.162270   -0.171742   -0.672062
     32          6           0       -0.798225   -1.271579   -1.941758
     33          1           0       -0.088319   -2.109240   -1.965465
     34          8           0        1.935926   -1.091075   -0.899249
     35          6           0       -0.724687   -0.534499   -3.300137
     36          1           0       -1.058824   -1.248043   -4.063269
     37          1           0       -1.471002    0.273468   -3.299717
     38          6           0       -2.221126   -1.819288   -1.739002
     39          1           0       -2.954198   -1.006827   -1.662483
     40          1           0       -2.504388   -2.440969   -2.594071
     41          1           0       -2.315525   -2.439228   -0.841125
     42          6           0        0.638360    0.027351   -3.722133
     43          1           0        0.579524    0.413848   -4.744860
     44          1           0        1.417343   -0.741397   -3.693683
     45          1           0        0.963437    0.859261   -3.087074
     46          7           0        1.570511    1.043639   -0.192972
     47          1           0        0.861982    1.672112    0.169360
     48          6           0        2.941294    1.233290    0.237696
     49          1           0        3.585405    0.704355   -0.471093
     50          6           0        3.183275    0.584270    1.603496
     51          6           0        3.328251    2.729149    0.269086
     52          1           0        2.675022    3.253918    0.982092
     53          1           0        4.348020    2.806296    0.662640
     54          8           0        2.319073    0.213189    2.382832
     55          6           0        3.237073    3.393939   -1.109942
     56          1           0        2.218110    3.306693   -1.501566
     57          1           0        3.897298    2.869083   -1.814116
     58          6           0        3.612445    4.885401   -1.068630
     59          1           0        2.993832    5.397049   -0.324827
     60          1           0        4.653725    5.010830   -0.749069
     61          7           0        3.464633    5.570508   -2.352791
     62          1           0        4.180409    5.321445   -3.025954
     63          7           0        1.181906    5.994998   -2.039832
     64          1           0        0.334000    6.217738   -2.552173
     65          1           0        1.417298    6.745452   -1.396030
     66          7           0        1.927283    5.619668   -4.202504
     67          1           0        2.726988    5.284298   -4.743415
     68          6           0        2.207104    5.713322   -2.955903
     69          8           0        4.487187    0.481255    1.871353
     70          1           0        4.593696    0.071247    2.751057
 ---------------------------------------------------------------------

 SCF Done:  E(RB3LYP) =  -1582.13338556     A.U. after    1 cycles

 Alpha  occ. eigenvalues --  -19.31797 -19.27076 -19.26339 -19.22052 -14.59495
 Alpha  occ. eigenvalues --  -14.50361 -14.48718 -14.46581 -14.41261 -14.39851
 Alpha  occ. eigenvalues --  -14.34232 -10.44590 -10.43603 -10.40620 -10.39207
 Alpha  occ. eigenvalues --  -10.34640 -10.34368 -10.33857 -10.33776 -10.33655
 Alpha  occ. eigenvalues --  -10.31907 -10.30579 -10.29716 -10.29607 -10.28665
 Alpha  occ. eigenvalues --  -10.28653 -10.28102 -10.28063 -10.27518 -10.27132
 Alpha  occ. eigenvalues --  -10.27034 -10.26467 -10.26348 -10.24526  -1.23099
 Alpha  occ. eigenvalues --   -1.18777  -1.14377  -1.14056  -1.13536  -1.08652
 Alpha  occ. eigenvalues --   -1.06405  -1.03364  -1.03223  -0.94790  -0.94553
 Alpha  occ. eigenvalues --   -0.93209  -0.91167  -0.90186  -0.89338  -0.88369
 Alpha  occ. eigenvalues --   -0.84101  -0.83221  -0.83036  -0.81764  -0.80414
 Alpha  occ. eigenvalues --   -0.79444  -0.76321  -0.74250  -0.73491  -0.72673
 Alpha  occ. eigenvalues --   -0.72201  -0.72080  -0.70853  -0.69231  -0.69194
 Alpha  occ. eigenvalues --   -0.68809  -0.67685  -0.66655  -0.65865  -0.64038
 Alpha  occ. eigenvalues --   -0.63944  -0.63025  -0.62378  -0.61903  -0.60367
 Alpha  occ. eigenvalues --   -0.60264  -0.59726  -0.58500  -0.57799  -0.57471
 Alpha  occ. eigenvalues --   -0.57086  -0.56477  -0.55382  -0.55067  -0.54578
 Alpha  occ. eigenvalues --   -0.53834  -0.53339  -0.52654  -0.52548  -0.52400
 Alpha  occ. eigenvalues --   -0.51973  -0.51924  -0.51731  -0.51217  -0.50754
 Alpha  occ. eigenvalues --   -0.50107  -0.49829  -0.49748  -0.49274  -0.49194
 Alpha  occ. eigenvalues --   -0.48582  -0.48285  -0.47230  -0.46172  -0.45326
 Alpha  occ. eigenvalues --   -0.44847  -0.44628  -0.44150  -0.43718  -0.43276
 Alpha  occ. eigenvalues --   -0.42930  -0.42768  -0.42387  -0.41703  -0.41186
 Alpha  occ. eigenvalues --   -0.41135  -0.40633  -0.40335  -0.39565  -0.37689
 Alpha  occ. eigenvalues --   -0.36698  -0.34940  -0.32434  -0.32169  -0.31545
 Alpha  occ. eigenvalues --   -0.30833  -0.28548
 Alpha virt. eigenvalues --   -0.13263  -0.11587  -0.11433  -0.08413  -0.07992
 Alpha virt. eigenvalues --   -0.06839  -0.05784  -0.04560  -0.03585  -0.03038
 Alpha virt. eigenvalues --   -0.02156  -0.01705  -0.00915  -0.00861  -0.00425

 Mulliken charges:
               1
     1  N   -0.742969
     2  H    0.442411
     3  H    0.416681
     4  H    0.396701
     5  C   -0.141800
     6  H    0.200693
     7  C    0.672323
     8  C   -0.338572
     9  H    0.186981
    10  H    0.205875
    11  O   -0.544458
    12  C    0.013986
    13  C   -0.025939
    14  H    0.156753
    15  C    0.087882
    16  C    0.315147
    17  C   -0.208423
    18  H    0.135050
    19  N   -0.685709
    20  H    0.347564
    21  C   -0.145195
    22  H    0.155375
    23  C   -0.154626
    24  H    0.149449
    25  C   -0.134646
    26  H    0.150631
    27  N   -0.600403
    28  H    0.354639
    29  C   -0.059486
    30  H    0.187262
    31  C    0.629643
    32  C   -0.115929
    33  H    0.162733
    34  O   -0.516323
    35  C   -0.259733
    36  H    0.156570
    37  H    0.141520
    38  C   -0.450801
    39  H    0.154667
    40  H    0.172954
    41  H    0.127699
    42  C   -0.467247
    43  H    0.165945
    44  H    0.168666
    45  H    0.143037
    46  N   -0.596416
    47  H    0.354255
    48  C   -0.045649
    49  H    0.218983
    50  C    0.615148
    51  C   -0.303291
    52  H    0.144116
    53  H    0.177657
    54  O   -0.532944
    55  C   -0.265588
    56  H    0.176867
    57  H    0.145172
    58  C   -0.139117
    59  H    0.152766
    60  H    0.154601
    61  N   -0.579442
    62  H    0.315698
    63  N   -0.745600
    64  H    0.340498
    65  H    0.324528
    66  N   -0.622119
    67  H    0.268453
    68  C    0.541895
    69  O   -0.532173
    70  H    0.425125
 Sum of Mulliken charges =   1.00000

 Dipole moment (field-independent basis, Debye):
    X=              0.8828    Y=             -1.6228    Z=             18.0932  Tot=             18.1872
 Quadrupole moment (field-independent basis, Debye-Ang):
   XX=           -156.4417   YY=           -177.2094   ZZ=            -97.8515
   XY=             20.7611   XZ=            -15.9666   YZ=            -15.3613

 Normal termination of Gaussian 16 at Thu May 26 00:32:13 2022.
