 Gaussian 16, Revision C.01,
 Gaussian 16:  ES64L-G16RevC.01  3-Jul-2019

 -------------------------------------------------------------------
 # B3LYP/6-31G* guess=read geom=check nosymm integral(ultrafinegrid)
 -------------------------------------------------------------------

 ------------------------------------------------------
 Candidate Structure: Conf:883 Charge calc in gas phase
 ------------------------------------------------------
 Structure from the checkpoint file:  "conf-883.chk"
 Charge =  1 Multiplicity = 1

                          Input orientation:
 ---------------------------------------------------------------------
 Center     Atomic      Atomic             Coordinates (Angstroms)
 Number     Number       Type             X           Y           Z
 ---------------------------------------------------------------------
      1          7           0       -0.108569    0.420287    3.260278
      2          1           0        0.906326    0.317819    3.072150
      3          1           0       -0.404369    1.317487    2.831631
      4          1           0       -0.329469    0.395608    4.267888
      5          6           0       -0.910478   -0.633669    2.535747
      6          1           0       -0.393697   -1.584164    2.685095
      7          6           0       -0.846982   -0.136469    1.079398
      8          6           0       -2.333925   -0.673481    3.137998
      9          1           0       -2.847854    0.257979    2.871619
     10          1           0       -2.874139   -1.484238    2.633773
     11          8           0       -0.916249    1.086196    0.905108
     12          6           0       -2.316579   -0.870648    4.626038
     13          6           0       -2.661864    0.067169    5.580254
     14          1           0       -3.046863    1.070862    5.453257
     15          6           0       -1.940134   -2.068922    5.343081
     16          6           0       -2.083197   -1.783116    6.726919
     17          6           0       -1.513447   -3.352846    4.954423
     18          1           0       -1.419135   -3.618415    3.903840
     19          7           0       -2.520522   -0.474896    6.834606
     20          1           0       -2.764914   -0.010733    7.697105
     21          6           0       -1.380430   -3.983341    7.304886
     22          1           0       -1.159980   -4.743262    8.048231
     23          6           0       -1.804950   -2.728123    7.720365
     24          1           0       -1.921934   -2.493655    8.774417
     25          6           0       -1.238661   -4.294549    5.936111
     26          1           0       -0.916327   -5.291058    5.649866
     27          7           0       -0.636306   -1.052512    0.125910
     28          1           0       -0.513523   -2.016731    0.412428
     29          6           0       -0.068450   -0.701981   -1.195522
     30          1           0       -0.421461    0.304690   -1.438322
     31          6           0        1.468669   -0.625657   -0.980783
     32          6           0       -0.498867   -1.697713   -2.292579
     33          1           0        0.196507   -1.528270   -3.124208
     34          8           0        2.251762   -1.464610   -1.398279
     35          6           0       -1.931408   -1.396525   -2.785521
     36          1           0       -2.278998   -2.262270   -3.363207
     37          1           0       -2.603700   -1.327554   -1.917686
     38          6           0       -0.351738   -3.169519   -1.867005
     39          1           0       -1.109293   -3.458362   -1.124334
     40          1           0       -0.508058   -3.821658   -2.731790
     41          1           0        0.646325   -3.378957   -1.472005
     42          6           0       -2.059394   -0.138450   -3.653539
     43          1           0       -3.102513    0.021049   -3.947305
     44          1           0       -1.471487   -0.242032   -4.573625
     45          1           0       -1.715405    0.769131   -3.144660
     46          7           0        1.857437    0.441546   -0.199485
     47          1           0        1.203233    1.215091   -0.126413
     48          6           0        3.259417    0.710039    0.059911
     49          1           0        3.819492   -0.070748   -0.471608
     50          6           0        3.677781    0.551963    1.521706
     51          6           0        3.695602    2.100392   -0.463154
     52          1           0        3.059869    2.851172    0.024587
     53          1           0        4.719368    2.287810   -0.128445
     54          8           0        4.774736    0.816522    1.939804
     55          6           0        3.575578    2.214557   -1.995178
     56          1           0        2.855285    1.474316   -2.354046
     57          1           0        4.530861    1.960793   -2.469145
     58          6           0        3.146739    3.611426   -2.504465
     59          1           0        3.964731    4.328948   -2.390662
     60          1           0        2.939883    3.552279   -3.579574
     61          7           0        1.993178    4.201586   -1.820405
     62          1           0        2.236770    4.790181   -1.034445
     63          7           0        0.060625    3.947583   -0.548527
     64          1           0       -0.871761    3.547520   -0.573794
     65          1           0        0.019242    4.957434   -0.444889
     66          7           0        0.355460    2.528875   -2.358859
     67          1           0        1.001108    2.282513   -3.107629
     68          6           0        0.800534    3.515594   -1.658982
     69          8           0        2.723698    0.023988    2.384208
     70          1           0        3.235036   -0.109935    3.208363
 ---------------------------------------------------------------------

 SCF Done:  E(RB3LYP) =  -1582.12901120     A.U. after    2 cycles

 Alpha  occ. eigenvalues --  -19.32619 -19.26022 -19.25747 -19.22097 -14.58876
 Alpha  occ. eigenvalues --  -14.49788 -14.49143 -14.45957 -14.43998 -14.42827
 Alpha  occ. eigenvalues --  -14.37381 -10.43714 -10.43114 -10.39994 -10.38935
 Alpha  occ. eigenvalues --  -10.36942 -10.34509 -10.33988 -10.33716 -10.33158
 Alpha  occ. eigenvalues --  -10.32501 -10.31189 -10.30608 -10.29396 -10.28991
 Alpha  occ. eigenvalues --  -10.28987 -10.28791 -10.28170 -10.27957 -10.27924
 Alpha  occ. eigenvalues --  -10.27714 -10.25716 -10.25685 -10.23807  -1.22398
 Alpha  occ. eigenvalues --   -1.18517  -1.13969  -1.13543  -1.13082  -1.09098
 Alpha  occ. eigenvalues --   -1.06411  -1.06091  -1.02750  -0.97420  -0.94611
 Alpha  occ. eigenvalues --   -0.93489  -0.92782  -0.90577  -0.89009  -0.88207
 Alpha  occ. eigenvalues --   -0.84486  -0.83854  -0.83308  -0.81747  -0.79890
 Alpha  occ. eigenvalues --   -0.78816  -0.77657  -0.73516  -0.72860  -0.72673
 Alpha  occ. eigenvalues --   -0.72503  -0.71735  -0.70831  -0.69813  -0.69607
 Alpha  occ. eigenvalues --   -0.68600  -0.67804  -0.66599  -0.66103  -0.64619
 Alpha  occ. eigenvalues --   -0.63715  -0.63019  -0.62471  -0.62083  -0.60638
 Alpha  occ. eigenvalues --   -0.60175  -0.59263  -0.59089  -0.58186  -0.57458
 Alpha  occ. eigenvalues --   -0.57355  -0.56239  -0.55902  -0.55618  -0.55100
 Alpha  occ. eigenvalues --   -0.54126  -0.54083  -0.53487  -0.53190  -0.53070
 Alpha  occ. eigenvalues --   -0.52518  -0.52340  -0.52153  -0.51675  -0.51507
 Alpha  occ. eigenvalues --   -0.50840  -0.50454  -0.49486  -0.49006  -0.48877
 Alpha  occ. eigenvalues --   -0.48538  -0.48099  -0.47032  -0.46717  -0.45501
 Alpha  occ. eigenvalues --   -0.44802  -0.44727  -0.44196  -0.43874  -0.43625
 Alpha  occ. eigenvalues --   -0.43589  -0.43456  -0.42955  -0.41257  -0.40645
 Alpha  occ. eigenvalues --   -0.40546  -0.40312  -0.39847  -0.39560  -0.38271
 Alpha  occ. eigenvalues --   -0.35823  -0.35518  -0.34514  -0.34439  -0.32801
 Alpha  occ. eigenvalues --   -0.31492  -0.31376
 Alpha virt. eigenvalues --   -0.13614  -0.11792  -0.11012  -0.08688  -0.07654
 Alpha virt. eigenvalues --   -0.07502  -0.05781  -0.05108  -0.04018  -0.03833
 Alpha virt. eigenvalues --   -0.02677  -0.02082  -0.01750  -0.01230  -0.00311

 Mulliken charges:
               1
     1  N   -0.760835
     2  H    0.433665
     3  H    0.412118
     4  H    0.393263
     5  C   -0.122754
     6  H    0.203002
     7  C    0.664573
     8  C   -0.362115
     9  H    0.188254
    10  H    0.202474
    11  O   -0.543598
    12  C   -0.003824
    13  C   -0.008291
    14  H    0.175751
    15  C    0.095321
    16  C    0.310138
    17  C   -0.215287
    18  H    0.119048
    19  N   -0.676098
    20  H    0.350937
    21  C   -0.147053
    22  H    0.157575
    23  C   -0.153966
    24  H    0.153040
    25  C   -0.133495
    26  H    0.150682
    27  N   -0.588966
    28  H    0.351945
    29  C   -0.124290
    30  H    0.242268
    31  C    0.606397
    32  C   -0.070639
    33  H    0.162537
    34  O   -0.489190
    35  C   -0.263538
    36  H    0.150121
    37  H    0.126966
    38  C   -0.496461
    39  H    0.126400
    40  H    0.176117
    41  H    0.179288
    42  C   -0.475172
    43  H    0.155272
    44  H    0.150367
    45  H    0.179489
    46  N   -0.634425
    47  H    0.376036
    48  C   -0.077973
    49  H    0.235761
    50  C    0.609909
    51  C   -0.282067
    52  H    0.135838
    53  H    0.192036
    54  O   -0.420324
    55  C   -0.286061
    56  H    0.158180
    57  H    0.168820
    58  C   -0.166658
    59  H    0.168364
    60  H    0.176588
    61  N   -0.575368
    62  H    0.325937
    63  N   -0.762659
    64  H    0.348141
    65  H    0.328352
    66  N   -0.662850
    67  H    0.291620
    68  C    0.572272
    69  O   -0.622619
    70  H    0.421712
 Sum of Mulliken charges =   1.00000

 Dipole moment (field-independent basis, Debye):
    X=             -1.1927    Y=              3.1466    Z=             14.8972  Tot=             15.2725
 Quadrupole moment (field-independent basis, Debye-Ang):
   XX=           -186.9293   YY=           -160.9010   ZZ=            -96.1283
   XY=             14.0466   XZ=            -26.4111   YZ=             -8.4395

 Normal termination of Gaussian 16 at Thu May 26 00:32:32 2022.
