 Gaussian 16, Revision C.01,
 Gaussian 16:  ES64L-G16RevC.01  3-Jul-2019

 -------------------------------------------------------------------
 # B3LYP/6-31G* guess=read geom=check nosymm integral(ultrafinegrid)
 -------------------------------------------------------------------

 ------------------------------------------------------
 Candidate Structure: Conf:448 Charge calc in gas phase
 ------------------------------------------------------
 Structure from the checkpoint file:  "conf-448.chk"
 Charge =  1 Multiplicity = 1

                          Input orientation:
 ---------------------------------------------------------------------
 Center     Atomic      Atomic             Coordinates (Angstroms)
 Number     Number       Type             X           Y           Z
 ---------------------------------------------------------------------
      1          7           0       -1.388960   -3.705603    2.822875
      2          1           0       -2.251318   -3.800639    3.363874
      3          1           0       -1.568962   -3.943501    1.808348
      4          1           0       -0.669957   -4.351684    3.191168
      5          6           0       -0.872578   -2.285438    2.742658
      6          1           0       -1.523121   -1.652967    3.353411
      7          6           0       -1.044290   -1.930596    1.235235
      8          6           0        0.600294   -2.215003    3.241550
      9          1           0        1.022706   -1.257147    2.920216
     10          1           0        0.581148   -2.188405    4.337710
     11          8           0       -1.359824   -2.840524    0.464869
     12          6           0        1.431607   -3.371627    2.768554
     13          6           0        2.102634   -3.489718    1.570347
     14          1           0        2.200393   -2.772557    0.765462
     15          6           0        1.592299   -4.631257    3.462834
     16          6           0        2.376586   -5.468688    2.619903
     17          6           0        1.158005   -5.135196    4.707707
     18          1           0        0.596218   -4.510932    5.400916
     19          7           0        2.669295   -4.738125    1.485457
     20          1           0        3.225640   -5.064599    0.708859
     21          6           0        2.275466   -7.243476    4.208850
     22          1           0        2.530902   -8.252222    4.518167
     23          6           0        2.727721   -6.772539    2.981395
     24          1           0        3.331773   -7.396884    2.329339
     25          6           0        1.500734   -6.434318    5.064298
     26          1           0        1.180373   -6.829772    6.023479
     27          7           0       -0.882593   -0.630139    0.936413
     28          1           0       -0.523585   -0.052770    1.691704
     29          6           0       -0.621653   -0.028430   -0.396568
     30          1           0       -1.008987    0.995479   -0.318826
     31          6           0        0.919376    0.010243   -0.488728
     32          6           0       -1.332789   -0.692984   -1.595925
     33          1           0       -1.000922   -1.732780   -1.656293
     34          8           0        1.587436   -1.016905   -0.463895
     35          6           0       -0.949759    0.031621   -2.915986
     36          1           0       -1.808753   -0.039815   -3.593389
     37          1           0       -0.820163    1.108164   -2.727775
     38          6           0       -2.855668   -0.665051   -1.389675
     39          1           0       -3.232478    0.365385   -1.356751
     40          1           0       -3.352045   -1.171048   -2.223819
     41          1           0       -3.159975   -1.171816   -0.469979
     42          6           0        0.279275   -0.527486   -3.645335
     43          1           0        0.452880    0.023863   -4.575699
     44          1           0        0.125340   -1.580362   -3.907975
     45          1           0        1.193282   -0.470324   -3.047797
     46          7           0        1.476767    1.256041   -0.505782
     47          1           0        0.858574    2.043674   -0.355308
     48          6           0        2.847332    1.435746   -0.052237
     49          1           0        3.467547    0.682424   -0.548008
     50          6           0        2.904540    1.134048    1.454940
     51          6           0        3.379531    2.841856   -0.380335
     52          1           0        2.726637    3.594266    0.087133
     53          1           0        4.361929    2.958874    0.084132
     54          8           0        1.940187    0.890426    2.156559
     55          6           0        3.490627    3.111126   -1.886909
     56          1           0        2.508113    3.023656   -2.366026
     57          1           0        4.124013    2.340600   -2.350196
     58          6           0        4.060241    4.500017   -2.199340
     59          1           0        3.991715    4.686368   -3.283516
     60          1           0        3.445269    5.262337   -1.706611
     61          7           0        5.419228    4.639509   -1.696978
     62          1           0        6.060007    3.941335   -2.063276
     63          7           0        7.367903    5.817111   -1.288291
     64          1           0        7.769436    6.738793   -1.155725
     65          1           0        7.555009    5.205193   -0.500877
     66          7           0        5.491772    7.055932   -1.863455
     67          1           0        4.559493    6.980063   -2.269155
     68          6           0        6.019062    5.910925   -1.638494
     69          8           0        4.162389    1.168706    1.915743
     70          1           0        4.135989    0.981515    2.873879
 ---------------------------------------------------------------------

 SCF Done:  E(RB3LYP) =  -1582.12532733     A.U. after    3 cycles

 Alpha  occ. eigenvalues --  -19.30926 -19.26733 -19.25757 -19.23131 -14.58293
 Alpha  occ. eigenvalues --  -14.50162 -14.48310 -14.47556 -14.41164 -14.38961
 Alpha  occ. eigenvalues --  -14.33820 -10.43559 -10.43485 -10.40180 -10.39982
 Alpha  occ. eigenvalues --  -10.35423 -10.34750 -10.33218 -10.33029 -10.32138
 Alpha  occ. eigenvalues --  -10.32084 -10.29630 -10.29304 -10.29239 -10.29101
 Alpha  occ. eigenvalues --  -10.29063 -10.29045 -10.28664 -10.28005 -10.27954
 Alpha  occ. eigenvalues --  -10.27915 -10.27135 -10.26359 -10.25205  -1.22026
 Alpha  occ. eigenvalues --   -1.18949  -1.15239  -1.12928  -1.12626  -1.08248
 Alpha  occ. eigenvalues --   -1.06458  -1.04166  -1.02987  -0.94686  -0.94175
 Alpha  occ. eigenvalues --   -0.93335  -0.91375  -0.89628  -0.89090  -0.88095
 Alpha  occ. eigenvalues --   -0.84483  -0.83569  -0.83090  -0.81993  -0.80622
 Alpha  occ. eigenvalues --   -0.79184  -0.76373  -0.73382  -0.73141  -0.72733
 Alpha  occ. eigenvalues --   -0.72151  -0.71356  -0.70156  -0.69887  -0.69197
 Alpha  occ. eigenvalues --   -0.68999  -0.67019  -0.65597  -0.65191  -0.64025
 Alpha  occ. eigenvalues --   -0.63985  -0.62886  -0.61435  -0.61037  -0.60557
 Alpha  occ. eigenvalues --   -0.59830  -0.59512  -0.58642  -0.57850  -0.57301
 Alpha  occ. eigenvalues --   -0.56784  -0.56596  -0.56037  -0.54608  -0.54148
 Alpha  occ. eigenvalues --   -0.54008  -0.53761  -0.53213  -0.52974  -0.52608
 Alpha  occ. eigenvalues --   -0.52133  -0.51880  -0.51376  -0.51322  -0.50875
 Alpha  occ. eigenvalues --   -0.50528  -0.49904  -0.49323  -0.49115  -0.48891
 Alpha  occ. eigenvalues --   -0.48697  -0.47992  -0.46694  -0.45836  -0.45542
 Alpha  occ. eigenvalues --   -0.45337  -0.44588  -0.43976  -0.43687  -0.43334
 Alpha  occ. eigenvalues --   -0.43237  -0.42967  -0.42541  -0.42018  -0.41511
 Alpha  occ. eigenvalues --   -0.41252  -0.40790  -0.39861  -0.39296  -0.38077
 Alpha  occ. eigenvalues --   -0.37612  -0.35876  -0.32416  -0.31753  -0.30886
 Alpha  occ. eigenvalues --   -0.30765  -0.28600
 Alpha virt. eigenvalues --   -0.13118  -0.11321  -0.10646  -0.09501  -0.09202
 Alpha virt. eigenvalues --   -0.07767  -0.05338  -0.04373  -0.03180  -0.02637
 Alpha virt. eigenvalues --   -0.01983  -0.01000  -0.00277   0.00083   0.00319

 Mulliken charges:
               1
     1  N   -0.769086
     2  H    0.406777
     3  H    0.430597
     4  H    0.417024
     5  C   -0.105005
     6  H    0.206298
     7  C    0.666705
     8  C   -0.406724
     9  H    0.221906
    10  H    0.185220
    11  O   -0.526011
    12  C   -0.013975
    13  C    0.018672
    14  H    0.228099
    15  C    0.042585
    16  C    0.323266
    17  C   -0.242308
    18  H    0.125462
    19  N   -0.683809
    20  H    0.349772
    21  C   -0.149817
    22  H    0.156468
    23  C   -0.153582
    24  H    0.153715
    25  C   -0.130219
    26  H    0.149982
    27  N   -0.602310
    28  H    0.360387
    29  C   -0.067112
    30  H    0.152734
    31  C    0.646110
    32  C   -0.076066
    33  H    0.182392
    34  O   -0.529917
    35  C   -0.280559
    36  H    0.160922
    37  H    0.127121
    38  C   -0.460419
    39  H    0.147515
    40  H    0.169726
    41  H    0.147576
    42  C   -0.458517
    43  H    0.157848
    44  H    0.157787
    45  H    0.159224
    46  N   -0.580148
    47  H    0.337908
    48  C   -0.056941
    49  H    0.211232
    50  C    0.604737
    51  C   -0.288713
    52  H    0.144963
    53  H    0.197924
    54  O   -0.492936
    55  C   -0.284122
    56  H    0.151524
    57  H    0.147386
    58  C   -0.133998
    59  H    0.156199
    60  H    0.156740
    61  N   -0.605842
    62  H    0.322570
    63  N   -0.748276
    64  H    0.342876
    65  H    0.317895
    66  N   -0.633523
    67  H    0.278695
    68  C    0.575143
    69  O   -0.545334
    70  H    0.427590
 Sum of Mulliken charges =   1.00000

 Dipole moment (field-independent basis, Debye):
    X=              1.1344    Y=            -10.5742    Z=              9.7435  Tot=             14.4235
 Quadrupole moment (field-independent basis, Debye-Ang):
   XX=           -162.0169   YY=           -154.2388   ZZ=           -153.8813
   XY=             -6.9060   XZ=             -2.4620   YZ=            -33.2746

 Normal termination of Gaussian 16 at Thu May 26 00:32:43 2022.
