 Gaussian 16, Revision C.01,
 Gaussian 16:  ES64L-G16RevC.01  3-Jul-2019

 -------------------------------------------------------------------
 # B3LYP/6-31G* guess=read geom=check nosymm integral(ultrafinegrid)
 -------------------------------------------------------------------

 ------------------------------------------------------
 Candidate Structure: Conf:879 Charge calc in gas phase
 ------------------------------------------------------
 Structure from the checkpoint file:  "conf-879.chk"
 Charge =  1 Multiplicity = 1

                          Input orientation:
 ---------------------------------------------------------------------
 Center     Atomic      Atomic             Coordinates (Angstroms)
 Number     Number       Type             X           Y           Z
 ---------------------------------------------------------------------
      1          7           0       -2.239942   -3.234876    3.190732
      2          1           0       -3.023505   -2.959929    3.787804
      3          1           0       -2.587758   -3.444834    2.214543
      4          1           0       -1.788507   -4.084623    3.570757
      5          6           0       -1.239735   -2.124218    2.949250
      6          1           0       -1.527342   -1.268094    3.566263
      7          6           0       -1.438066   -1.792607    1.439919
      8          6           0        0.198449   -2.604864    3.301091
      9          1           0        0.910152   -1.891881    2.871854
     10          1           0        0.315480   -2.536295    4.389428
     11          8           0       -2.138057   -2.558595    0.773011
     12          6           0        0.474379   -4.007138    2.841480
     13          6           0        0.907348   -4.415739    1.598261
     14          1           0        1.174600   -3.820713    0.734393
     15          6           0        0.226791   -5.207036    3.611839
     16          6           0        0.532841   -6.310497    2.765526
     17          6           0       -0.220039   -5.462023    4.926695
     18          1           0       -0.417159   -4.646533    5.620851
     19          7           0        0.946557   -5.788370    1.556273
     20          1           0        1.245203   -6.330318    0.758495
     21          6           0       -0.049993   -7.853998    4.487269
     22          1           0       -0.161810   -8.872198    4.846959
     23          6           0        0.403234   -7.635626    3.190868
     24          1           0        0.646868   -8.466466    2.534892
     25          6           0       -0.356916   -6.780405    5.347173
     26          1           0       -0.690318   -6.988989    6.359363
     27          7           0       -0.855542   -0.653394    1.026297
     28          1           0       -0.242549   -0.211447    1.705259
     29          6           0       -0.531695   -0.249555   -0.366364
     30          1           0       -0.502859    0.845745   -0.336299
     31          6           0        0.891686   -0.802590   -0.600949
     32          6           0       -1.543923   -0.677872   -1.449781
     33          1           0       -1.594930   -1.769835   -1.432818
     34          8           0        1.117748   -2.007969   -0.600686
     35          6           0       -1.037936   -0.275022   -2.858829
     36          1           0       -0.095207   -0.797359   -3.064924
     37          1           0       -1.761519   -0.678049   -3.577991
     38          6           0       -2.944291   -0.117675   -1.159922
     39          1           0       -2.940258    0.974574   -1.065931
     40          1           0       -3.624933   -0.376818   -1.977898
     41          1           0       -3.362506   -0.537582   -0.241505
     42          6           0       -0.859127    1.225409   -3.129041
     43          1           0       -0.559782    1.386359   -4.169748
     44          1           0       -0.078446    1.676347   -2.503504
     45          1           0       -1.784447    1.787919   -2.965885
     46          7           0        1.875385    0.133646   -0.719826
     47          1           0        1.625577    1.101571   -0.563701
     48          6           0        3.253257   -0.225191   -0.430305
     49          1           0        3.481337   -1.152101   -0.964251
     50          6           0        3.372365   -0.538609    1.070409
     51          6           0        4.231511    0.890701   -0.854532
     52          1           0        3.992714    1.802436   -0.288151
     53          1           0        5.235953    0.589110   -0.538097
     54          8           0        2.489398   -0.373689    1.891286
     55          6           0        4.225140    1.204283   -2.358623
     56          1           0        4.866375    2.076890   -2.525843
     57          1           0        3.221252    1.489795   -2.694962
     58          6           0        4.731315    0.051070   -3.242370
     59          1           0        5.689988   -0.328184   -2.848291
     60          1           0        4.027425   -0.787639   -3.210735
     61          7           0        4.846457    0.456180   -4.635565
     62          1           0        4.550923   -0.241474   -5.308470
     63          7           0        5.927453    1.385383   -6.456026
     64          1           0        6.680360    1.996082   -6.753577
     65          1           0        5.028404    1.682300   -6.820388
     66          7           0        6.932154    1.656524   -4.381250
     67          1           0        6.921383    1.307529   -3.422482
     68          6           0        5.958734    1.190340   -5.074577
     69          8           0        4.586034   -1.018740    1.375136
     70          1           0        4.611881   -1.184109    2.337828
 ---------------------------------------------------------------------

 SCF Done:  E(RB3LYP) =  -1582.12473700     A.U. after    1 cycles

 Alpha  occ. eigenvalues --  -19.30858 -19.26790 -19.25679 -19.23111 -14.58340
 Alpha  occ. eigenvalues --  -14.50277 -14.48292 -14.47582 -14.41194 -14.39020
 Alpha  occ. eigenvalues --  -14.33920 -10.43619 -10.43413 -10.40152 -10.40022
 Alpha  occ. eigenvalues --  -10.35337 -10.34720 -10.33355 -10.32977 -10.32147
 Alpha  occ. eigenvalues --  -10.32070 -10.29908 -10.29390 -10.29294 -10.29225
 Alpha  occ. eigenvalues --  -10.29065 -10.29012 -10.28662 -10.28006 -10.27950
 Alpha  occ. eigenvalues --  -10.27206 -10.27044 -10.26287 -10.26159  -1.21938
 Alpha  occ. eigenvalues --   -1.18994  -1.15167  -1.12873  -1.12643  -1.08228
 Alpha  occ. eigenvalues --   -1.06509  -1.04180  -1.03047  -0.94552  -0.94157
 Alpha  occ. eigenvalues --   -0.93334  -0.91434  -0.89570  -0.89284  -0.88118
 Alpha  occ. eigenvalues --   -0.84456  -0.83539  -0.82982  -0.81995  -0.80581
 Alpha  occ. eigenvalues --   -0.79181  -0.76448  -0.74000  -0.73256  -0.73114
 Alpha  occ. eigenvalues --   -0.72172  -0.71515  -0.70640  -0.69882  -0.69192
 Alpha  occ. eigenvalues --   -0.68872  -0.67002  -0.65380  -0.64563  -0.63945
 Alpha  occ. eigenvalues --   -0.63309  -0.62598  -0.61625  -0.61133  -0.60461
 Alpha  occ. eigenvalues --   -0.60170  -0.59595  -0.58635  -0.58098  -0.57293
 Alpha  occ. eigenvalues --   -0.57056  -0.56613  -0.55938  -0.55049  -0.54582
 Alpha  occ. eigenvalues --   -0.54075  -0.53828  -0.53326  -0.53162  -0.52501
 Alpha  occ. eigenvalues --   -0.52013  -0.51741  -0.51296  -0.51097  -0.50798
 Alpha  occ. eigenvalues --   -0.50592  -0.50199  -0.49751  -0.49530  -0.48601
 Alpha  occ. eigenvalues --   -0.48031  -0.47609  -0.47024  -0.46957  -0.45331
 Alpha  occ. eigenvalues --   -0.45261  -0.44861  -0.44594  -0.43699  -0.43320
 Alpha  occ. eigenvalues --   -0.43101  -0.42591  -0.42470  -0.42008  -0.41587
 Alpha  occ. eigenvalues --   -0.41370  -0.40897  -0.39788  -0.39273  -0.38055
 Alpha  occ. eigenvalues --   -0.37560  -0.35856  -0.32401  -0.31519  -0.31158
 Alpha  occ. eigenvalues --   -0.30750  -0.28613
 Alpha virt. eigenvalues --   -0.13155  -0.11332  -0.10564  -0.09558  -0.09108
 Alpha virt. eigenvalues --   -0.07758  -0.05494  -0.04552  -0.03363  -0.02746
 Alpha virt. eigenvalues --   -0.02091  -0.01053  -0.00656  -0.00378   0.00237

 Mulliken charges:
               1
     1  N   -0.769340
     2  H    0.406866
     3  H    0.430832
     4  H    0.416963
     5  C   -0.104737
     6  H    0.205419
     7  C    0.666551
     8  C   -0.409661
     9  H    0.225644
    10  H    0.185197
    11  O   -0.525586
    12  C   -0.010793
    13  C    0.017822
    14  H    0.226752
    15  C    0.043441
    16  C    0.323182
    17  C   -0.244170
    18  H    0.126071
    19  N   -0.683993
    20  H    0.349729
    21  C   -0.149844
    22  H    0.156515
    23  C   -0.153517
    24  H    0.153798
    25  C   -0.130215
    26  H    0.150069
    27  N   -0.601361
    28  H    0.358657
    29  C   -0.059444
    30  H    0.155693
    31  C    0.632739
    32  C   -0.086839
    33  H    0.183099
    34  O   -0.525502
    35  C   -0.283318
    36  H    0.152862
    37  H    0.159374
    38  C   -0.460881
    39  H    0.148246
    40  H    0.167177
    41  H    0.152389
    42  C   -0.456551
    43  H    0.168999
    44  H    0.124168
    45  H    0.163134
    46  N   -0.582198
    47  H    0.340432
    48  C   -0.055048
    49  H    0.213290
    50  C    0.605960
    51  C   -0.312527
    52  H    0.151524
    53  H    0.185736
    54  O   -0.492289
    55  C   -0.257244
    56  H    0.178040
    57  H    0.148787
    58  C   -0.150393
    59  H    0.147397
    60  H    0.145268
    61  N   -0.600436
    62  H    0.329975
    63  N   -0.747405
    64  H    0.343282
    65  H    0.321526
    66  N   -0.633124
    67  H    0.271218
    68  C    0.570330
    69  O   -0.545574
    70  H    0.427837
 Sum of Mulliken charges =   1.00000

 Dipole moment (field-independent basis, Debye):
    X=             -2.9388    Y=            -10.8196    Z=              9.2385  Tot=             14.5276
 Quadrupole moment (field-independent basis, Debye-Ang):
   XX=           -190.5069   YY=           -132.3269   ZZ=           -135.9495
   XY=              3.9675   XZ=            -12.2478   YZ=            -39.4713

 Normal termination of Gaussian 16 at Thu May 26 00:32:15 2022.
