 Gaussian 16, Revision C.01,
 Gaussian 16:  ES64L-G16RevC.01  3-Jul-2019

 -------------------------------------------------------------------
 # B3LYP/6-31G* guess=read geom=check nosymm integral(ultrafinegrid)
 -------------------------------------------------------------------

 ------------------------------------------------------
 Candidate Structure: Conf:929 Charge calc in gas phase
 ------------------------------------------------------
 Structure from the checkpoint file:  "conf-929.chk"
 Charge =  1 Multiplicity = 1

                          Input orientation:
 ---------------------------------------------------------------------
 Center     Atomic      Atomic             Coordinates (Angstroms)
 Number     Number       Type             X           Y           Z
 ---------------------------------------------------------------------
      1          7           0       -1.837408   -3.779597    2.033093
      2          1           0       -2.750929   -3.563296    2.441701
      3          1           0       -1.923407   -3.764783    0.971228
      4          1           0       -1.535730   -4.698351    2.371241
      5          6           0       -0.797888   -2.698772    2.267443
      6          1           0       -1.143476   -2.060190    3.083001
      7          6           0       -0.796528   -1.946804    0.903677
      8          6           0        0.556285   -3.360270    2.626806
      9          1           0        0.358939   -4.067309    3.448600
     10          1           0        0.893255   -3.946801    1.763338
     11          8           0       -1.329126   -2.527814   -0.050410
     12          6           0        1.621720   -2.390341    3.032255
     13          6           0        2.792441   -2.159020    2.342524
     14          1           0        3.106397   -2.556624    1.387821
     15          6           0        1.684232   -1.590964    4.235808
     16          6           0        2.926874   -0.897930    4.196858
     17          6           0        0.837506   -1.399863    5.344480
     18          1           0       -0.107925   -1.932828    5.428925
     19          7           0        3.576661   -1.273322    3.032905
     20          1           0        4.477228   -0.915562    2.704231
     21          6           0        2.470614    0.145789    6.287822
     22          1           0        2.755278    0.810663    7.097703
     23          6           0        3.335788   -0.028179    5.214317
     24          1           0        4.298809    0.474951    5.172952
     25          6           0        1.235906   -0.533110    6.353880
     26          1           0        0.592469   -0.380899    7.215491
     27          7           0       -0.279930   -0.713040    0.917533
     28          1           0        0.232279   -0.475951    1.762236
     29          6           0        0.050870    0.117951   -0.259244
     30          1           0        0.114254    1.138707    0.138649
     31          6           0        1.474755   -0.312107   -0.708502
     32          6           0       -1.051213    0.131442   -1.357557
     33          1           0       -1.140649   -0.881972   -1.757028
     34          8           0        1.859905   -1.471009   -0.596453
     35          6           0       -0.696560    1.090198   -2.528011
     36          1           0       -1.633999    1.535266   -2.881788
     37          1           0       -0.109114    1.945224   -2.157540
     38          6           0       -2.399101    0.536678   -0.735897
     39          1           0       -2.361636    1.559425   -0.339108
     40          1           0       -3.180707    0.508282   -1.501596
     41          1           0       -2.708380   -0.130045    0.073712
     42          6           0        0.001311    0.434183   -3.726047
     43          1           0        0.156637    1.169658   -4.523261
     44          1           0       -0.624503   -0.366247   -4.137718
     45          1           0        0.976283    0.005044   -3.481163
     46          7           0        2.282115    0.691660   -1.139753
     47          1           0        1.907651    1.624250   -1.238718
     48          6           0        3.717160    0.500438   -1.363487
     49          1           0        4.058390    1.392776   -1.903192
     50          6           0        3.930112   -0.661468   -2.350233
     51          6           0        4.460118    0.406006   -0.014139
     52          1           0        3.989483    1.146424    0.645818
     53          1           0        4.256798   -0.574785    0.417853
     54          8           0        3.287711   -0.814148   -3.360292
     55          6           0        5.969591    0.679388   -0.041163
     56          1           0        6.172925    1.605412   -0.595928
     57          1           0        6.497785   -0.120703   -0.571070
     58          6           0        6.552409    0.858264    1.366081
     59          1           0        7.602112    1.178928    1.296205
     60          1           0        6.004562    1.654099    1.883490
     61          7           0        6.429589   -0.364885    2.175029
     62          1           0        6.855443   -1.161303    1.703548
     63          7           0        7.039224   -1.592653    4.055311
     64          1           0        7.227574   -1.560662    5.050914
     65          1           0        6.334814   -2.282008    3.816487
     66          7           0        7.043680    0.715485    4.261543
     67          1           0        7.025519    1.582681    3.726991
     68          6           0        6.851659   -0.317611    3.531031
     69          8           0        4.967626   -1.453830   -2.005807
     70          1           0        5.045018   -2.123551   -2.712848
 ---------------------------------------------------------------------

 SCF Done:  E(RB3LYP) =  -1582.11551893     A.U. after    2 cycles

 Alpha  occ. eigenvalues --  -19.28941 -19.26995 -19.22741 -19.22632 -14.60004
 Alpha  occ. eigenvalues --  -14.50135 -14.47295 -14.46722 -14.44590 -14.41949
 Alpha  occ. eigenvalues --  -14.36909 -10.43788 -10.41392 -10.40523 -10.39803
 Alpha  occ. eigenvalues --  -10.36309 -10.35455 -10.34671 -10.33889 -10.31718
 Alpha  occ. eigenvalues --  -10.31404 -10.30825 -10.29277 -10.28766 -10.28753
 Alpha  occ. eigenvalues --  -10.28380 -10.28100 -10.27827 -10.27197 -10.27162
 Alpha  occ. eigenvalues --  -10.26812 -10.26787 -10.26736 -10.24269  -1.19758
 Alpha  occ. eigenvalues --   -1.19442  -1.14679  -1.13750  -1.10615  -1.07153
 Alpha  occ. eigenvalues --   -1.06501  -1.05883  -1.03504  -0.97277  -0.94224
 Alpha  occ. eigenvalues --   -0.92517  -0.92307  -0.91249  -0.89356  -0.87426
 Alpha  occ. eigenvalues --   -0.84764  -0.83231  -0.82334  -0.81664  -0.80435
 Alpha  occ. eigenvalues --   -0.79015  -0.76533  -0.74107  -0.73478  -0.73114
 Alpha  occ. eigenvalues --   -0.72509  -0.71033  -0.70363  -0.70101  -0.68260
 Alpha  occ. eigenvalues --   -0.67711  -0.66942  -0.66517  -0.66039  -0.65214
 Alpha  occ. eigenvalues --   -0.63469  -0.63020  -0.62475  -0.62265  -0.60657
 Alpha  occ. eigenvalues --   -0.59246  -0.58442  -0.57896  -0.57774  -0.57354
 Alpha  occ. eigenvalues --   -0.56790  -0.56312  -0.55577  -0.55006  -0.54805
 Alpha  occ. eigenvalues --   -0.54318  -0.53304  -0.52949  -0.52497  -0.52373
 Alpha  occ. eigenvalues --   -0.51934  -0.51840  -0.51244  -0.50855  -0.50692
 Alpha  occ. eigenvalues --   -0.50282  -0.50000  -0.49788  -0.49422  -0.48887
 Alpha  occ. eigenvalues --   -0.48347  -0.47936  -0.47719  -0.47117  -0.45477
 Alpha  occ. eigenvalues --   -0.44828  -0.44511  -0.44182  -0.44086  -0.43620
 Alpha  occ. eigenvalues --   -0.42801  -0.42411  -0.42092  -0.41456  -0.41146
 Alpha  occ. eigenvalues --   -0.40704  -0.40296  -0.39875  -0.36997  -0.36751
 Alpha  occ. eigenvalues --   -0.36160  -0.35713  -0.35012  -0.33880  -0.31769
 Alpha  occ. eigenvalues --   -0.31286  -0.29793
 Alpha virt. eigenvalues --   -0.12784  -0.11195  -0.10261  -0.08830  -0.08526
 Alpha virt. eigenvalues --   -0.07029  -0.06146  -0.05193  -0.03819  -0.03520
 Alpha virt. eigenvalues --   -0.02498  -0.01875  -0.01372  -0.00957  -0.00880

 Mulliken charges:
               1
     1  N   -0.758227
     2  H    0.415709
     3  H    0.434260
     4  H    0.412351
     5  C   -0.126155
     6  H    0.217866
     7  C    0.676625
     8  C   -0.374987
     9  H    0.173526
    10  H    0.192672
    11  O   -0.533775
    12  C    0.002757
    13  C    0.016139
    14  H    0.190071
    15  C    0.080482
    16  C    0.284241
    17  C   -0.224183
    18  H    0.103048
    19  N   -0.722911
    20  H    0.395602
    21  C   -0.154782
    22  H    0.151830
    23  C   -0.171669
    24  H    0.174706
    25  C   -0.132405
    26  H    0.141948
    27  N   -0.590010
    28  H    0.364554
    29  C   -0.086194
    30  H    0.159995
    31  C    0.649744
    32  C   -0.075212
    33  H    0.187745
    34  O   -0.527672
    35  C   -0.283765
    36  H    0.161466
    37  H    0.110718
    38  C   -0.456748
    39  H    0.149984
    40  H    0.171591
    41  H    0.134049
    42  C   -0.478842
    43  H    0.155913
    44  H    0.154647
    45  H    0.193462
    46  N   -0.596522
    47  H    0.348000
    48  C   -0.061657
    49  H    0.188207
    50  C    0.621269
    51  C   -0.256215
    52  H    0.138460
    53  H    0.171294
    54  O   -0.439038
    55  C   -0.301921
    56  H    0.153252
    57  H    0.173649
    58  C   -0.145727
    59  H    0.169760
    60  H    0.156989
    61  N   -0.635894
    62  H    0.334036
    63  N   -0.741249
    64  H    0.351584
    65  H    0.321204
    66  N   -0.629941
    67  H    0.291209
    68  C    0.572974
    69  O   -0.569449
    70  H    0.425562
 Sum of Mulliken charges =   1.00000

 Dipole moment (field-independent basis, Debye):
    X=              1.9814    Y=             -8.5970    Z=              7.4291  Tot=             11.5337
 Quadrupole moment (field-independent basis, Debye-Ang):
   XX=           -141.6622   YY=           -142.4255   ZZ=           -181.0937
   XY=             18.1421   XZ=            -22.3358   YZ=            -34.4680

 Normal termination of Gaussian 16 at Thu May 26 00:32:36 2022.
