 Gaussian 16, Revision C.01,
 Gaussian 16:  ES64L-G16RevC.01  3-Jul-2019

 -------------------------------------------------------------------
 # B3LYP/6-31G* guess=read geom=check nosymm integral(ultrafinegrid)
 -------------------------------------------------------------------

 ------------------------------------------------------
 Candidate Structure: Conf:112 Charge calc in gas phase
 ------------------------------------------------------
 Structure from the checkpoint file:  "conf-112.chk"
 Charge =  1 Multiplicity = 1

                          Input orientation:
 ---------------------------------------------------------------------
 Center     Atomic      Atomic             Coordinates (Angstroms)
 Number     Number       Type             X           Y           Z
 ---------------------------------------------------------------------
      1          7           0        0.347591   -4.626023   -0.300744
      2          1           0       -0.073131   -5.523617   -0.051155
      3          1           0       -0.224616   -4.104966   -1.039095
      4          1           0        1.286542   -4.794936   -0.676281
      5          6           0        0.370727   -3.611917    0.829649
      6          1           0       -0.366927   -3.947090    1.564083
      7          6           0       -0.157652   -2.327091    0.113007
      8          6           0        1.774882   -3.525739    1.462873
      9          1           0        2.128178   -4.552431    1.636243
     10          1           0        2.451548   -3.067474    0.732799
     11          8           0       -0.642358   -2.486460   -1.015146
     12          6           0        1.810660   -2.739541    2.747610
     13          6           0        1.165526   -3.049744    3.928041
     14          1           0        0.514419   -3.879406    4.170908
     15          6           0        2.583513   -1.543186    3.003704
     16          6           0        2.349644   -1.182577    4.357948
     17          6           0        3.460329   -0.756876    2.230449
     18          1           0        3.662465   -1.008159    1.193510
     19          7           0        1.480316   -2.117979    4.886035
     20          1           0        1.147199   -2.132891    5.838904
     21          6           0        3.805019    0.691393    4.163838
     22          1           0        4.291901    1.561814    4.592881
     23          6           0        2.949849   -0.066195    4.952028
     24          1           0        2.759961    0.194110    5.989276
     25          6           0        4.059504    0.348073    2.818276
     26          1           0        4.745072    0.957298    2.236060
     27          7           0       -0.100453   -1.180358    0.801320
     28          1           0        0.412967   -1.232286    1.677680
     29          6           0       -0.059591    0.140323    0.148431
     30          1           0       -0.077766    0.865061    0.971446
     31          6           0        1.338558    0.220697   -0.542421
     32          6           0       -1.293160    0.435454   -0.759921
     33          1           0       -1.239284   -0.234345   -1.623843
     34          8           0        1.945007   -0.799889   -0.867552
     35          6           0       -1.267496    1.891938   -1.276099
     36          1           0       -1.270371    2.583887   -0.419360
     37          1           0       -0.332410    2.066326   -1.818300
     38          6           0       -2.588054    0.135044    0.012219
     39          1           0       -2.689611    0.791170    0.886533
     40          1           0       -3.460704    0.293853   -0.626207
     41          1           0       -2.623643   -0.900609    0.359556
     42          6           0       -2.429611    2.245434   -2.213746
     43          1           0       -2.284587    3.245678   -2.634696
     44          1           0       -3.395544    2.245442   -1.700185
     45          1           0       -2.491909    1.539089   -3.050317
     46          7           0        1.838623    1.466810   -0.709918
     47          1           0        1.378286    2.258591   -0.273599
     48          6           0        3.215988    1.716617   -1.121851
     49          1           0        3.792285    0.803988   -0.945384
     50          6           0        3.741510    2.833811   -0.226587
     51          6           0        3.367379    2.117183   -2.609267
     52          1           0        2.827756    3.059307   -2.780119
     53          1           0        4.431796    2.319246   -2.776546
     54          8           0        3.034561    3.586974    0.408439
     55          6           0        2.881066    1.041981   -3.587190
     56          1           0        1.796372    0.910046   -3.483342
     57          1           0        3.339720    0.076551   -3.346306
     58          6           0        3.188035    1.379663   -5.058173
     59          1           0        2.711477    0.629771   -5.696349
     60          1           0        2.742826    2.343940   -5.331149
     61          7           0        4.610257    1.458733   -5.400204
     62          1           0        5.055129    2.330375   -5.141948
     63          7           0        4.871163   -0.859289   -5.602385
     64          1           0        5.582561   -1.582542   -5.633139
     65          1           0        4.343731   -0.831751   -6.470076
     66          7           0        6.700085    0.380011   -4.905736
     67          1           0        6.978194    1.305443   -4.572595
     68          6           0        5.471102    0.363255   -5.273211
     69          8           0        5.084177    2.908471   -0.252311
     70          1           0        5.342260    3.678873    0.290349
 ---------------------------------------------------------------------

 SCF Done:  E(RB3LYP) =  -1582.11773681     A.U. after    1 cycles

 Alpha  occ. eigenvalues --  -19.29431 -19.26681 -19.23882 -19.22240 -14.59565
 Alpha  occ. eigenvalues --  -14.48974 -14.48870 -14.46265 -14.40946 -14.39533
 Alpha  occ. eigenvalues --  -14.33874 -10.43460 -10.41808 -10.40612 -10.39399
 Alpha  occ. eigenvalues --  -10.34796 -10.33985 -10.33440 -10.33415 -10.33394
 Alpha  occ. eigenvalues --  -10.32074 -10.30211 -10.29105 -10.29010 -10.28991
 Alpha  occ. eigenvalues --  -10.28393 -10.28189 -10.27856 -10.27792 -10.27548
 Alpha  occ. eigenvalues --  -10.27041 -10.26156 -10.25891 -10.25245  -1.20398
 Alpha  occ. eigenvalues --   -1.19204  -1.14161  -1.13284  -1.11517  -1.08778
 Alpha  occ. eigenvalues --   -1.05870  -1.03014  -1.02781  -0.94535  -0.94397
 Alpha  occ. eigenvalues --   -0.93380  -0.90933  -0.89723  -0.88294  -0.88177
 Alpha  occ. eigenvalues --   -0.83921  -0.83402  -0.82547  -0.81922  -0.80345
 Alpha  occ. eigenvalues --   -0.79424  -0.75179  -0.74346  -0.73679  -0.72555
 Alpha  occ. eigenvalues --   -0.72190  -0.72081  -0.69624  -0.69133  -0.68339
 Alpha  occ. eigenvalues --   -0.68223  -0.66841  -0.65687  -0.65062  -0.64866
 Alpha  occ. eigenvalues --   -0.64131  -0.62332  -0.62172  -0.59974  -0.59515
 Alpha  occ. eigenvalues --   -0.58753  -0.58576  -0.57829  -0.57322  -0.56884
 Alpha  occ. eigenvalues --   -0.56658  -0.55884  -0.55180  -0.54800  -0.54665
 Alpha  occ. eigenvalues --   -0.53877  -0.52935  -0.52866  -0.52498  -0.52199
 Alpha  occ. eigenvalues --   -0.51956  -0.51674  -0.51614  -0.50707  -0.50609
 Alpha  occ. eigenvalues --   -0.50051  -0.49939  -0.49217  -0.48756  -0.48476
 Alpha  occ. eigenvalues --   -0.48084  -0.46873  -0.46268  -0.45969  -0.45358
 Alpha  occ. eigenvalues --   -0.45117  -0.44536  -0.43394  -0.43191  -0.42816
 Alpha  occ. eigenvalues --   -0.42548  -0.42407  -0.41982  -0.41764  -0.41315
 Alpha  occ. eigenvalues --   -0.41276  -0.40034  -0.39605  -0.37853  -0.37491
 Alpha  occ. eigenvalues --   -0.35826  -0.35429  -0.32384  -0.32033  -0.31203
 Alpha  occ. eigenvalues --   -0.30860  -0.28103
 Alpha virt. eigenvalues --   -0.13040  -0.11487  -0.10197  -0.08825  -0.08002
 Alpha virt. eigenvalues --   -0.07168  -0.06339  -0.05576  -0.02548  -0.02155
 Alpha virt. eigenvalues --   -0.01892  -0.01497  -0.00732  -0.00658  -0.00454

 Mulliken charges:
               1
     1  N   -0.760985
     2  H    0.411662
     3  H    0.437853
     4  H    0.417311
     5  C   -0.121172
     6  H    0.219076
     7  C    0.677302
     8  C   -0.375278
     9  H    0.178682
    10  H    0.211688
    11  O   -0.538909
    12  C   -0.006349
    13  C    0.016269
    14  H    0.163921
    15  C    0.058434
    16  C    0.316364
    17  C   -0.219865
    18  H    0.157442
    19  N   -0.676722
    20  H    0.350009
    21  C   -0.144682
    22  H    0.152354
    23  C   -0.155158
    24  H    0.150863
    25  C   -0.144239
    26  H    0.140273
    27  N   -0.594402
    28  H    0.373912
    29  C   -0.092368
    30  H    0.169606
    31  C    0.643405
    32  C   -0.081617
    33  H    0.173427
    34  O   -0.543316
    35  C   -0.283706
    36  H    0.134818
    37  H    0.150331
    38  C   -0.453155
    39  H    0.146687
    40  H    0.172003
    41  H    0.147130
    42  C   -0.454134
    43  H    0.161164
    44  H    0.160940
    45  H    0.152911
    46  N   -0.598878
    47  H    0.357969
    48  C   -0.048742
    49  H    0.202259
    50  C    0.586478
    51  C   -0.270023
    52  H    0.148050
    53  H    0.162311
    54  O   -0.461555
    55  C   -0.266401
    56  H    0.139800
    57  H    0.179393
    58  C   -0.143606
    59  H    0.156422
    60  H    0.150728
    61  N   -0.584657
    62  H    0.314512
    63  N   -0.741131
    64  H    0.338699
    65  H    0.324728
    66  N   -0.628824
    67  H    0.263553
    68  C    0.550542
    69  O   -0.559142
    70  H    0.427734
 Sum of Mulliken charges =   1.00000

 Dipole moment (field-independent basis, Debye):
    X=              2.6836    Y=            -10.7936    Z=              4.6206  Tot=             12.0438
 Quadrupole moment (field-independent basis, Debye-Ang):
   XX=           -199.4990   YY=           -105.3285   ZZ=           -146.5989
   XY=             15.0180   XZ=             10.0875   YZ=            -17.9608

 Normal termination of Gaussian 16 at Thu May 26 00:24:52 2022.
