 Gaussian 16, Revision C.01,
 Gaussian 16:  ES64L-G16RevC.01  3-Jul-2019

 -------------------------------------------------------------------
 # B3LYP/6-31G* guess=read geom=check nosymm integral(ultrafinegrid)
 -------------------------------------------------------------------

 ------------------------------------------------------
 Candidate Structure: Conf:746 Charge calc in gas phase
 ------------------------------------------------------
 Structure from the checkpoint file:  "conf-746.chk"
 Charge =  1 Multiplicity = 1

                          Input orientation:
 ---------------------------------------------------------------------
 Center     Atomic      Atomic             Coordinates (Angstroms)
 Number     Number       Type             X           Y           Z
 ---------------------------------------------------------------------
      1          7           0       -0.630170   -3.822624    2.481262
      2          1           0       -1.507217   -4.322998    2.645204
      3          1           0       -0.374439   -3.899835    1.461650
      4          1           0        0.098165   -4.207023    3.109704
      5          6           0       -0.735391   -2.336562    2.700490
      6          1           0       -1.647555   -2.143520    3.268989
      7          6           0       -0.790243   -1.755134    1.263929
      8          6           0        0.523214   -1.841319    3.477421
      9          1           0        1.355428   -1.751830    2.771474
     10          1           0        0.305850   -0.822196    3.818960
     11          8           0       -0.521476   -2.518927    0.334415
     12          6           0        0.878956   -2.734044    4.627631
     13          6           0        2.002600   -3.535486    4.714180
     14          1           0        2.832155   -3.633151    4.025775
     15          6           0        0.133905   -2.936354    5.850706
     16          6           0        0.867648   -3.869179    6.630887
     17          6           0       -1.068228   -2.415829    6.365572
     18          1           0       -1.644303   -1.679280    5.809653
     19          7           0        1.996841   -4.212828    5.908527
     20          1           0        2.731036   -4.826749    6.229928
     21          6           0       -0.757891   -3.770342    8.367657
     22          1           0       -1.122595   -4.077624    9.342940
     23          6           0        0.434552   -4.298228    7.890013
     24          1           0        1.008720   -5.011178    8.474514
     25          6           0       -1.501218   -2.836690    7.615303
     26          1           0       -2.423081   -2.437814    8.027554
     27          7           0       -1.143637   -0.459648    1.170718
     28          1           0       -1.274411    0.018913    2.054404
     29          6           0       -0.764635    0.432751    0.055469
     30          1           0       -1.324359    1.359400    0.231114
     31          6           0        0.753757    0.727372    0.244481
     32          6           0       -1.200147   -0.107313   -1.338615
     33          1           0       -0.668977   -1.047366   -1.509594
     34          8           0        1.506982   -0.110653    0.739921
     35          6           0       -0.841808    0.874214   -2.487724
     36          1           0       -1.655877    0.844739   -3.221260
     37          1           0       -0.830189    1.911244   -2.123202
     38          6           0       -2.710448   -0.397965   -1.329605
     39          1           0       -3.291290    0.520326   -1.173928
     40          1           0       -3.011587   -0.819417   -2.293970
     41          1           0       -2.992199   -1.113847   -0.552187
     42          6           0        0.468039    0.550207   -3.215452
     43          1           0        0.663506    1.280801   -4.007843
     44          1           0        0.413215   -0.439683   -3.682920
     45          1           0        1.329756    0.550275   -2.541542
     46          7           0        1.155576    1.967457   -0.105639
     47          1           0        0.504943    2.658492   -0.463435
     48          6           0        2.518475    2.450443    0.103459
     49          1           0        2.879438    2.066904    1.063466
     50          6           0        2.409080    3.970619    0.175867
     51          6           0        3.484147    1.979016   -1.015331
     52          1           0        3.334775    0.896106   -1.101066
     53          1           0        3.162091    2.425190   -1.965225
     54          8           0        1.464903    4.597403   -0.258962
     55          6           0        4.967836    2.273265   -0.762197
     56          1           0        5.270415    1.844799    0.203941
     57          1           0        5.144810    3.350847   -0.701178
     58          6           0        5.860722    1.698176   -1.875214
     59          1           0        5.745742    0.608951   -1.934365
     60          1           0        5.539731    2.097161   -2.842253
     61          7           0        7.288362    1.973807   -1.704290
     62          1           0        7.710893    1.437987   -0.954737
     63          7           0        7.169231    4.083787   -2.715359
     64          1           0        7.661835    4.968398   -2.785836
     65          1           0        7.092856    3.637271   -3.624538
     66          7           0        8.718132    3.781524   -1.018675
     67          1           0        8.988357    3.142256   -0.268279
     68          6           0        7.788057    3.283312   -1.746883
     69          8           0        3.476178    4.533945    0.760530
     70          1           0        3.354649    5.502970    0.721459
 ---------------------------------------------------------------------

 SCF Done:  E(RB3LYP) =  -1582.11954815     A.U. after    2 cycles

 Alpha  occ. eigenvalues --  -19.29109 -19.26529 -19.23626 -19.21998 -14.58892
 Alpha  occ. eigenvalues --  -14.49887 -14.49322 -14.46225 -14.40332 -14.38817
 Alpha  occ. eigenvalues --  -14.33246 -10.43539 -10.41638 -10.40138 -10.39269
 Alpha  occ. eigenvalues --  -10.35103 -10.34161 -10.33538 -10.33426 -10.32715
 Alpha  occ. eigenvalues --  -10.32702 -10.30741 -10.29593 -10.29240 -10.29011
 Alpha  occ. eigenvalues --  -10.28991 -10.28627 -10.28384 -10.28189 -10.27642
 Alpha  occ. eigenvalues --  -10.27114 -10.26387 -10.25582 -10.25303  -1.20191
 Alpha  occ. eigenvalues --   -1.18950  -1.13976  -1.13140  -1.11275  -1.09287
 Alpha  occ. eigenvalues --   -1.06268  -1.02654  -1.02354  -0.94710  -0.93780
 Alpha  occ. eigenvalues --   -0.93611  -0.91220  -0.89160  -0.88570  -0.88065
 Alpha  occ. eigenvalues --   -0.84184  -0.83961  -0.82962  -0.81912  -0.80375
 Alpha  occ. eigenvalues --   -0.79032  -0.74729  -0.73613  -0.72972  -0.72889
 Alpha  occ. eigenvalues --   -0.72447  -0.71914  -0.70349  -0.69993  -0.68776
 Alpha  occ. eigenvalues --   -0.67982  -0.66926  -0.65996  -0.65234  -0.64871
 Alpha  occ. eigenvalues --   -0.64519  -0.62529  -0.62064  -0.59615  -0.59351
 Alpha  occ. eigenvalues --   -0.59231  -0.58534  -0.57639  -0.57386  -0.56886
 Alpha  occ. eigenvalues --   -0.56231  -0.55463  -0.55144  -0.54365  -0.53827
 Alpha  occ. eigenvalues --   -0.53431  -0.53365  -0.53268  -0.52832  -0.52335
 Alpha  occ. eigenvalues --   -0.52031  -0.51663  -0.51020  -0.50787  -0.50563
 Alpha  occ. eigenvalues --   -0.50354  -0.49269  -0.48990  -0.48929  -0.48586
 Alpha  occ. eigenvalues --   -0.48270  -0.47644  -0.46640  -0.45676  -0.45379
 Alpha  occ. eigenvalues --   -0.44889  -0.44357  -0.44066  -0.43849  -0.42976
 Alpha  occ. eigenvalues --   -0.42743  -0.42029  -0.41769  -0.41349  -0.41113
 Alpha  occ. eigenvalues --   -0.40391  -0.40076  -0.39754  -0.38376  -0.37380
 Alpha  occ. eigenvalues --   -0.35663  -0.35393  -0.33024  -0.31734  -0.31382
 Alpha  occ. eigenvalues --   -0.30517  -0.27552
 Alpha virt. eigenvalues --   -0.12725  -0.11679  -0.09916  -0.08826  -0.08017
 Alpha virt. eigenvalues --   -0.07702  -0.06771  -0.04948  -0.03569  -0.02207
 Alpha virt. eigenvalues --   -0.01612  -0.01194  -0.00824  -0.00761   0.00138

 Mulliken charges:
               1
     1  N   -0.746456
     2  H    0.413288
     3  H    0.426517
     4  H    0.394890
     5  C   -0.129061
     6  H    0.208908
     7  C    0.682511
     8  C   -0.379532
     9  H    0.222232
    10  H    0.187076
    11  O   -0.526184
    12  C   -0.017944
    13  C    0.000105
    14  H    0.182998
    15  C    0.099639
    16  C    0.310851
    17  C   -0.218810
    18  H    0.117750
    19  N   -0.675309
    20  H    0.351966
    21  C   -0.146869
    22  H    0.158517
    23  C   -0.153344
    24  H    0.154398
    25  C   -0.132691
    26  H    0.150817
    27  N   -0.590864
    28  H    0.347474
    29  C   -0.092238
    30  H    0.163854
    31  C    0.634646
    32  C   -0.075945
    33  H    0.184067
    34  O   -0.539196
    35  C   -0.283441
    36  H    0.162864
    37  H    0.129424
    38  C   -0.458404
    39  H    0.150606
    40  H    0.169253
    41  H    0.143548
    42  C   -0.462674
    43  H    0.160716
    44  H    0.158338
    45  H    0.155838
    46  N   -0.620014
    47  H    0.363988
    48  C   -0.027029
    49  H    0.190109
    50  C    0.584349
    51  C   -0.281111
    52  H    0.172900
    53  H    0.157962
    54  O   -0.463739
    55  C   -0.271274
    56  H    0.132607
    57  H    0.185205
    58  C   -0.139308
    59  H    0.146149
    60  H    0.155738
    61  N   -0.581460
    62  H    0.309845
    63  N   -0.741329
    64  H    0.341395
    65  H    0.324196
    66  N   -0.624593
    67  H    0.263592
    68  C    0.545625
    69  O   -0.548541
    70  H    0.430608
 Sum of Mulliken charges =   1.00000

 Dipole moment (field-independent basis, Debye):
    X=             -0.5124    Y=            -11.2532    Z=             13.1123  Tot=             17.2866
 Quadrupole moment (field-independent basis, Debye-Ang):
   XX=           -191.0821   YY=           -132.9645   ZZ=           -114.0215
   XY=            -11.0038   XZ=             -0.9605   YZ=            -62.2485

 Normal termination of Gaussian 16 at Thu May 26 00:32:25 2022.
