 Gaussian 16, Revision C.01,
 Gaussian 16:  ES64L-G16RevC.01  3-Jul-2019

 -------------------------------------------------------------------
 # B3LYP/6-31G* guess=read geom=check nosymm integral(ultrafinegrid)
 -------------------------------------------------------------------

 ------------------------------------------------------
 Candidate Structure: Conf:684 Charge calc in gas phase
 ------------------------------------------------------
 Structure from the checkpoint file:  "conf-684.chk"
 Charge =  1 Multiplicity = 1

                          Input orientation:
 ---------------------------------------------------------------------
 Center     Atomic      Atomic             Coordinates (Angstroms)
 Number     Number       Type             X           Y           Z
 ---------------------------------------------------------------------
      1          7           0       -1.755146   -0.167125    3.819152
      2          1           0       -1.504421    0.231702    4.726942
      3          1           0       -1.940079    0.596955    3.102991
      4          1           0       -2.602206   -0.733169    3.932159
      5          6           0       -0.621308   -0.936584    3.162943
      6          1           0        0.306529   -0.540548    3.585492
      7          6           0       -0.662335   -0.404437    1.705724
      8          6           0       -0.727873   -2.454654    3.417775
      9          1           0       -0.973806   -2.594925    4.481118
     10          1           0       -1.563833   -2.871180    2.841771
     11          8           0       -1.312416    0.632424    1.500652
     12          6           0        0.543987   -3.191304    3.097689
     13          6           0        0.708258   -4.151472    2.121496
     14          1           0       -0.014302   -4.557750    1.425906
     15          6           0        1.819978   -3.061147    3.765524
     16          6           0        2.712676   -3.962972    3.124915
     17          6           0        2.298371   -2.286715    4.838498
     18          1           0        1.644049   -1.604083    5.373996
     19          7           0        2.001586   -4.612987    2.136800
     20          1           0        2.376799   -5.307418    1.507531
     21          6           0        4.499725   -3.303866    4.555950
     22          1           0        5.532369   -3.383816    4.881463
     23          6           0        4.053735   -4.091157    3.503121
     24          1           0        4.720657   -4.781660    2.995620
     25          6           0        3.629296   -2.412637    5.222998
     26          1           0        4.000178   -1.842224    6.070514
     27          7           0        0.047280   -1.065004    0.788366
     28          1           0        0.612220   -1.848750    1.109947
     29          6           0        0.494222   -0.438526   -0.479920
     30          1           0       -0.111322    0.462118   -0.609882
     31          6           0        1.961983   -0.112224   -0.129388
     32          6           0        0.330956   -1.373180   -1.694897
     33          1           0        1.085479   -2.164786   -1.591908
     34          8           0        2.795337   -1.008745   -0.069590
     35          6           0        0.586743   -0.628602   -3.025887
     36          1           0        0.372609   -1.340701   -3.832452
     37          1           0       -0.160053    0.172256   -3.130970
     38          6           0       -1.066824   -2.011532   -1.720588
     39          1           0       -1.851921   -1.248742   -1.795447
     40          1           0       -1.162804   -2.670799   -2.589253
     41          1           0       -1.265935   -2.609078   -0.825035
     42          6           0        1.992936   -0.055569   -3.244392
     43          1           0        2.089524    0.314513   -4.270499
     44          1           0        2.765367   -0.815945   -3.086803
     45          1           0        2.212813    0.786308   -2.579082
     46          7           0        2.219744    1.166288    0.273746
     47          1           0        1.431692    1.792499    0.390783
     48          6           0        3.380365    1.415106    1.127762
     49          1           0        4.273886    1.048089    0.618378
     50          6           0        3.195037    0.614345    2.425362
     51          6           0        3.490336    2.924169    1.418897
     52          1           0        3.414722    3.442715    0.454283
     53          1           0        2.623267    3.230979    2.015884
     54          8           0        2.113002    0.475695    2.970727
     55          6           0        4.793111    3.341533    2.116179
     56          1           0        5.641807    3.143030    1.447665
     57          1           0        4.962053    2.730080    3.012146
     58          6           0        4.831301    4.828044    2.525614
     59          1           0        5.858830    5.087153    2.805159
     60          1           0        4.577673    5.471435    1.675672
     61          7           0        3.969571    5.186883    3.640020
     62          1           0        4.212034    4.766510    4.528254
     63          7           0        2.022171    5.693747    4.778166
     64          1           0        1.109976    6.123476    4.663132
     65          1           0        2.578933    6.217804    5.447423
     66          7           0        1.944272    5.781516    2.462299
     67          1           0        2.470264    5.571868    1.614789
     68          6           0        2.637423    5.563860    3.522779
     69          8           0        4.333624    0.106978    2.902212
     70          1           0        4.117131   -0.440200    3.687952
 ---------------------------------------------------------------------

 SCF Done:  E(RB3LYP) =  -1582.12701172     A.U. after    1 cycles

 Alpha  occ. eigenvalues --  -19.29469 -19.26567 -19.24320 -19.21875 -14.59679
 Alpha  occ. eigenvalues --  -14.49278 -14.48942 -14.46228 -14.42101 -14.40276
 Alpha  occ. eigenvalues --  -14.34749 -10.43309 -10.42200 -10.39702 -10.38910
 Alpha  occ. eigenvalues --  -10.34598 -10.34457 -10.34037 -10.33650 -10.33425
 Alpha  occ. eigenvalues --  -10.32590 -10.30518 -10.30072 -10.29529 -10.29464
 Alpha  occ. eigenvalues --  -10.28985 -10.28625 -10.28541 -10.28527 -10.28490
 Alpha  occ. eigenvalues --  -10.27359 -10.26439 -10.26352 -10.24692  -1.20634
 Alpha  occ. eigenvalues --   -1.18971  -1.14128  -1.13383  -1.11563  -1.09021
 Alpha  occ. eigenvalues --   -1.05887  -1.04087  -1.02681  -0.95476  -0.94891
 Alpha  occ. eigenvalues --   -0.93841  -0.90769  -0.90340  -0.88907  -0.88307
 Alpha  occ. eigenvalues --   -0.84173  -0.83926  -0.83223  -0.81967  -0.80505
 Alpha  occ. eigenvalues --   -0.79529  -0.76432  -0.74095  -0.73205  -0.72885
 Alpha  occ. eigenvalues --   -0.72358  -0.71671  -0.70397  -0.69951  -0.68533
 Alpha  occ. eigenvalues --   -0.67854  -0.67285  -0.66585  -0.64705  -0.64590
 Alpha  occ. eigenvalues --   -0.64199  -0.62740  -0.61317  -0.61139  -0.60525
 Alpha  occ. eigenvalues --   -0.59876  -0.59390  -0.58576  -0.57830  -0.57703
 Alpha  occ. eigenvalues --   -0.57085  -0.56410  -0.55960  -0.55283  -0.53838
 Alpha  occ. eigenvalues --   -0.53651  -0.53501  -0.53112  -0.52746  -0.52367
 Alpha  occ. eigenvalues --   -0.51909  -0.51603  -0.51429  -0.51250  -0.50653
 Alpha  occ. eigenvalues --   -0.50146  -0.49914  -0.49544  -0.49260  -0.48938
 Alpha  occ. eigenvalues --   -0.48802  -0.47853  -0.47049  -0.45997  -0.45738
 Alpha  occ. eigenvalues --   -0.45127  -0.44100  -0.43932  -0.43780  -0.43719
 Alpha  occ. eigenvalues --   -0.42935  -0.42847  -0.41713  -0.41570  -0.41451
 Alpha  occ. eigenvalues --   -0.41316  -0.40421  -0.39326  -0.38467  -0.37920
 Alpha  occ. eigenvalues --   -0.36350  -0.34744  -0.33088  -0.32669  -0.32425
 Alpha  occ. eigenvalues --   -0.31469  -0.28990
 Alpha virt. eigenvalues --   -0.12986  -0.11884  -0.10692  -0.09533  -0.08452
 Alpha virt. eigenvalues --   -0.07226  -0.06031  -0.05363  -0.02833  -0.01845
 Alpha virt. eigenvalues --   -0.01615  -0.01055  -0.00990  -0.00074   0.00260

 Mulliken charges:
               1
     1  N   -0.760633
     2  H    0.416759
     3  H    0.436855
     4  H    0.409882
     5  C   -0.139311
     6  H    0.280928
     7  C    0.649546
     8  C   -0.375834
     9  H    0.179316
    10  H    0.178816
    11  O   -0.544761
    12  C    0.008393
    13  C    0.002854
    14  H    0.180564
    15  C    0.113448
    16  C    0.319935
    17  C   -0.197441
    18  H    0.115869
    19  N   -0.673610
    20  H    0.352910
    21  C   -0.144477
    22  H    0.158893
    23  C   -0.144570
    24  H    0.157513
    25  C   -0.194177
    26  H    0.150549
    27  N   -0.605639
    28  H    0.377359
    29  C   -0.061638
    30  H    0.183730
    31  C    0.634857
    32  C   -0.098327
    33  H    0.151863
    34  O   -0.525287
    35  C   -0.260693
    36  H    0.154279
    37  H    0.139439
    38  C   -0.453003
    39  H    0.155777
    40  H    0.167117
    41  H    0.129613
    42  C   -0.465302
    43  H    0.162959
    44  H    0.165410
    45  H    0.145315
    46  N   -0.602337
    47  H    0.347855
    48  C   -0.017609
    49  H    0.203681
    50  C    0.606836
    51  C   -0.325100
    52  H    0.167056
    53  H    0.178341
    54  O   -0.514224
    55  C   -0.265049
    56  H    0.154921
    57  H    0.146745
    58  C   -0.157436
    59  H    0.167168
    60  H    0.164997
    61  N   -0.589879
    62  H    0.320976
    63  N   -0.755926
    64  H    0.337636
    65  H    0.322895
    66  N   -0.650037
    67  H    0.271498
    68  C    0.578642
    69  O   -0.551681
    70  H    0.423987
 Sum of Mulliken charges =   1.00000

 Dipole moment (field-independent basis, Debye):
    X=              2.6861    Y=             -4.8798    Z=             15.2687  Tot=             16.2530
 Quadrupole moment (field-independent basis, Debye-Ang):
   XX=           -150.0500   YY=           -158.5279   ZZ=           -117.1326
   XY=             11.9981   XZ=              5.8187   YZ=              3.7247

 Normal termination of Gaussian 16 at Thu May 26 00:32:18 2022.
