 Gaussian 16, Revision C.01,
 Gaussian 16:  ES64L-G16RevC.01  3-Jul-2019

 -------------------------------------------------------------------
 # B3LYP/6-31G* guess=read geom=check nosymm integral(ultrafinegrid)
 -------------------------------------------------------------------

 ------------------------------------------------------
 Candidate Structure: Conf:126 Charge calc in gas phase
 ------------------------------------------------------
 Structure from the checkpoint file:  "conf-126.chk"
 Charge =  1 Multiplicity = 1

                          Input orientation:
 ---------------------------------------------------------------------
 Center     Atomic      Atomic             Coordinates (Angstroms)
 Number     Number       Type             X           Y           Z
 ---------------------------------------------------------------------
      1          7           0       -2.167604   -2.568350    1.838313
      2          1           0       -3.189956   -2.552217    1.795361
      3          1           0       -1.808957   -3.139988    1.025734
      4          1           0       -1.877714   -2.961550    2.747710
      5          6           0       -1.546790   -1.212672    1.581275
      6          1           0       -2.297942   -0.449879    1.795198
      7          6           0       -1.176284   -1.282099    0.077468
      8          6           0       -0.298492   -1.018866    2.483002
      9          1           0        0.513256   -1.644990    2.091983
     10          1           0        0.032705    0.016408    2.351233
     11          8           0       -1.109420   -2.409293   -0.433629
     12          6           0       -0.563604   -1.332247    3.927197
     13          6           0       -1.028548   -0.477613    4.901718
     14          1           0       -1.241332    0.581890    4.849388
     15          6           0       -0.449252   -2.635369    4.547683
     16          6           0       -0.868309   -2.490572    5.899903
     17          6           0       -0.023660   -3.905382    4.100576
     18          1           0        0.346197   -4.048557    3.086620
     19          7           0       -1.211835   -1.165560    6.078394
     20          1           0       -1.510232   -0.753148    6.950234
     21          6           0       -0.468631   -4.801656    6.323482
     22          1           0       -0.466737   -5.654387    6.995218
     23          6           0       -0.881473   -3.562648    6.797884
     24          1           0       -1.199801   -3.433791    7.828301
     25          6           0       -0.041811   -4.972140    4.990264
     26          1           0        0.290057   -5.951814    4.660221
     27          7           0       -0.935498   -0.127006   -0.541248
     28          1           0       -0.952612    0.768024   -0.026346
     29          6           0       -0.472980   -0.047015   -1.942089
     30          1           0       -0.441737    1.031827   -2.139278
     31          6           0        0.997463   -0.541406   -2.059935
     32          6           0       -1.410290   -0.686126   -2.999838
     33          1           0       -1.172882   -1.753110   -3.051681
     34          8           0        1.402904   -1.179664   -3.017436
     35          6           0       -1.114504   -0.052746   -4.381991
     36          1           0       -1.523645    0.969481   -4.395545
     37          1           0       -0.032322    0.031963   -4.512881
     38          6           0       -2.891292   -0.516228   -2.629327
     39          1           0       -3.146822    0.537848   -2.460430
     40          1           0       -3.526512   -0.881550   -3.441058
     41          1           0       -3.162947   -1.082265   -1.733226
     42          6           0       -1.677009   -0.850767   -5.563241
     43          1           0       -1.421842   -0.363718   -6.510360
     44          1           0       -2.768120   -0.941913   -5.528038
     45          1           0       -1.253628   -1.861382   -5.585360
     46          7           0        1.819891   -0.112743   -1.049695
     47          1           0        1.410665    0.335007   -0.242835
     48          6           0        3.247508   -0.367252   -1.060510
     49          1           0        3.432763   -0.881105   -2.012316
     50          6           0        3.715551   -1.340498    0.024116
     51          6           0        4.099323    0.920015   -1.025935
     52          1           0        5.131770    0.624829   -1.228616
     53          1           0        3.778640    1.543505   -1.868921
     54          8           0        4.867956   -1.450842    0.371935
     55          6           0        4.049569    1.718273    0.304212
     56          1           0        5.067777    1.842751    0.689385
     57          1           0        3.515584    1.150642    1.076525
     58          6           0        3.433263    3.126246    0.207811
     59          1           0        3.587984    3.666299    1.151189
     60          1           0        3.955303    3.713825   -0.553558
     61          7           0        2.009720    3.176747   -0.142659
     62          1           0        1.797069    3.271489   -1.125650
     63          7           0        1.270453    2.366434    1.934170
     64          1           0        0.472032    2.495096    2.544188
     65          1           0        2.115208    2.758406    2.331274
     66          7           0       -0.272481    2.607220    0.240726
     67          1           0       -0.398686    2.976529   -0.702684
     68          6           0        0.963338    2.743859    0.628434
     69          8           0        2.719973   -2.101126    0.548459
     70          1           0        3.168552   -2.718827    1.158480
 ---------------------------------------------------------------------

 SCF Done:  E(RB3LYP) =  -1582.13011482     A.U. after    1 cycles

 Alpha  occ. eigenvalues --  -19.29134 -19.25463 -19.22945 -19.20714 -14.58222
 Alpha  occ. eigenvalues --  -14.49412 -14.48069 -14.46804 -14.46355 -14.45380
 Alpha  occ. eigenvalues --  -14.40019 -10.42158 -10.41092 -10.40358 -10.39526
 Alpha  occ. eigenvalues --  -10.38102 -10.33823 -10.33461 -10.33262 -10.33177
 Alpha  occ. eigenvalues --  -10.33033 -10.32995 -10.30440 -10.30127 -10.29784
 Alpha  occ. eigenvalues --  -10.29411 -10.28732 -10.28673 -10.28667 -10.28403
 Alpha  occ. eigenvalues --  -10.27123 -10.25458 -10.24852 -10.23434  -1.19748
 Alpha  occ. eigenvalues --   -1.17862  -1.12858  -1.12323  -1.10640  -1.09445
 Alpha  occ. eigenvalues --   -1.09337  -1.04907  -1.01779  -1.00204  -0.95775
 Alpha  occ. eigenvalues --   -0.94880  -0.93475  -0.90059  -0.88883  -0.88048
 Alpha  occ. eigenvalues --   -0.84623  -0.84375  -0.83206  -0.81574  -0.79452
 Alpha  occ. eigenvalues --   -0.78661  -0.77360  -0.73300  -0.73197  -0.72662
 Alpha  occ. eigenvalues --   -0.71995  -0.71799  -0.71041  -0.70355  -0.70089
 Alpha  occ. eigenvalues --   -0.68019  -0.67766  -0.67577  -0.66499  -0.65093
 Alpha  occ. eigenvalues --   -0.64216  -0.63825  -0.62411  -0.61721  -0.60150
 Alpha  occ. eigenvalues --   -0.59397  -0.58672  -0.58550  -0.57985  -0.57360
 Alpha  occ. eigenvalues --   -0.57313  -0.56268  -0.55613  -0.55394  -0.55115
 Alpha  occ. eigenvalues --   -0.54736  -0.54348  -0.53888  -0.53578  -0.53248
 Alpha  occ. eigenvalues --   -0.52578  -0.52315  -0.52200  -0.51154  -0.50673
 Alpha  occ. eigenvalues --   -0.50344  -0.50093  -0.49624  -0.48796  -0.48677
 Alpha  occ. eigenvalues --   -0.48500  -0.47972  -0.47040  -0.46039  -0.45156
 Alpha  occ. eigenvalues --   -0.45077  -0.44751  -0.44478  -0.44182  -0.44011
 Alpha  occ. eigenvalues --   -0.43670  -0.42955  -0.41399  -0.40865  -0.40723
 Alpha  occ. eigenvalues --   -0.39671  -0.39404  -0.39017  -0.38452  -0.38285
 Alpha  occ. eigenvalues --   -0.37927  -0.37549  -0.33916  -0.33715  -0.33298
 Alpha  occ. eigenvalues --   -0.33286  -0.31674
 Alpha virt. eigenvalues --   -0.12398  -0.11279  -0.09683  -0.08458  -0.08341
 Alpha virt. eigenvalues --   -0.07753  -0.06532  -0.05755  -0.05182  -0.03423
 Alpha virt. eigenvalues --   -0.03128  -0.02507  -0.02116  -0.00631  -0.00297

 Mulliken charges:
               1
     1  N   -0.762369
     2  H    0.409842
     3  H    0.425495
     4  H    0.413733
     5  C   -0.103506
     6  H    0.206023
     7  C    0.665943
     8  C   -0.410537
     9  H    0.201926
    10  H    0.202766
    11  O   -0.540226
    12  C    0.035433
    13  C    0.014111
    14  H    0.166753
    15  C    0.037348
    16  C    0.322208
    17  C   -0.245543
    18  H    0.132593
    19  N   -0.679362
    20  H    0.351168
    21  C   -0.148716
    22  H    0.160466
    23  C   -0.151932
    24  H    0.156383
    25  C   -0.129156
    26  H    0.154643
    27  N   -0.657009
    28  H    0.394284
    29  C   -0.067326
    30  H    0.155967
    31  C    0.629389
    32  C   -0.065382
    33  H    0.173379
    34  O   -0.492254
    35  C   -0.271252
    36  H    0.121490
    37  H    0.165026
    38  C   -0.457916
    39  H    0.138524
    40  H    0.170229
    41  H    0.124480
    42  C   -0.454283
    43  H    0.156845
    44  H    0.147249
    45  H    0.161021
    46  N   -0.627525
    47  H    0.352092
    48  C   -0.079813
    49  H    0.233382
    50  C    0.598671
    51  C   -0.262236
    52  H    0.190827
    53  H    0.145581
    54  O   -0.449359
    55  C   -0.279238
    56  H    0.177238
    57  H    0.146687
    58  C   -0.179017
    59  H    0.163833
    60  H    0.183644
    61  N   -0.576978
    62  H    0.337741
    63  N   -0.745297
    64  H    0.346052
    65  H    0.346921
    66  N   -0.722333
    67  H    0.292703
    68  C    0.603956
    69  O   -0.573198
    70  H    0.417716
 Sum of Mulliken charges =   1.00000

 Dipole moment (field-independent basis, Debye):
    X=             -3.8807    Y=             -0.5197    Z=             13.1398  Tot=             13.7107
 Quadrupole moment (field-independent basis, Debye-Ang):
   XX=           -174.3019   YY=           -157.9584   ZZ=           -126.0800
   XY=             31.4603   XZ=            -18.3059   YZ=            -29.7528

 Normal termination of Gaussian 16 at Thu May 26 00:32:32 2022.
