 Gaussian 16, Revision C.01,
 Gaussian 16:  ES64L-G16RevC.01  3-Jul-2019

 -------------------------------------------------------------------
 # B3LYP/6-31G* guess=read geom=check nosymm integral(ultrafinegrid)
 -------------------------------------------------------------------

 ------------------------------------------------------
 Candidate Structure: Conf:920 Charge calc in gas phase
 ------------------------------------------------------
 Structure from the checkpoint file:  "conf-920.chk"
 Charge =  1 Multiplicity = 1

                          Input orientation:
 ---------------------------------------------------------------------
 Center     Atomic      Atomic             Coordinates (Angstroms)
 Number     Number       Type             X           Y           Z
 ---------------------------------------------------------------------
      1          7           0       -0.268442   -1.834014    3.282108
      2          1           0       -0.701949   -1.845071    4.213423
      3          1           0        0.197739   -2.720638    3.050574
      4          1           0        0.474386   -1.104543    3.255420
      5          6           0       -1.290130   -1.543565    2.205647
      6          1           0       -2.014180   -2.364331    2.252017
      7          6           0       -0.463647   -1.671343    0.903997
      8          6           0       -2.002409   -0.210324    2.509475
      9          1           0       -1.281929    0.610592    2.408129
     10          1           0       -2.769480   -0.062592    1.739844
     11          8           0        0.527625   -2.398357    0.926133
     12          6           0       -2.644550   -0.195106    3.869647
     13          6           0       -3.938513   -0.562352    4.167449
     14          1           0       -4.738052   -0.873029    3.507885
     15          6           0       -2.015714    0.154813    5.125687
     16          6           0       -2.993978   -0.035046    6.141450
     17          6           0       -0.739048    0.629738    5.495021
     18          1           0        0.023881    0.833014    4.746099
     19          7           0       -4.147844   -0.472077    5.521667
     20          1           0       -5.026832   -0.651437    5.984872
     21          6           0       -1.461732    0.669071    7.824590
     22          1           0       -1.225132    0.875754    8.863706
     23          6           0       -2.731479    0.215432    7.492416
     24          1           0       -3.492207    0.066283    8.253141
     25          6           0       -0.477632    0.878462    6.836036
     26          1           0        0.497684    1.253450    7.131914
     27          7           0       -0.843087   -0.943311   -0.164408
     28          1           0       -1.724892   -0.450496   -0.141691
     29          6           0       -0.034054   -0.881041   -1.404556
     30          1           0       -0.456074   -0.030477   -1.953794
     31          6           0        1.421038   -0.488339   -1.004684
     32          6           0       -0.081941   -2.139883   -2.317449
     33          1           0        0.825885   -2.715034   -2.110695
     34          8           0        2.407104   -1.063397   -1.422344
     35          6           0       -0.075584   -1.732444   -3.810753
     36          1           0       -0.107227   -2.658676   -4.397821
     37          1           0       -1.017476   -1.206275   -4.032043
     38          6           0       -1.301146   -3.031293   -2.037801
     39          1           0       -2.247358   -2.491515   -2.174668
     40          1           0       -1.305078   -3.872895   -2.737699
     41          1           0       -1.283493   -3.452191   -1.027850
     42          6           0        1.107801   -0.887594   -4.296888
     43          1           0        1.031821   -0.727397   -5.377649
     44          1           0        2.062542   -1.377885   -4.087722
     45          1           0        1.138561    0.103199   -3.827357
     46          7           0        1.489889    0.605146   -0.168446
     47          1           0        0.627314    0.940067    0.238600
     48          6           0        2.704423    0.935317    0.553291
     49          1           0        3.530937    0.451991    0.026861
     50          6           0        2.632554    0.347864    1.962278
     51          6           0        2.925692    2.467928    0.590798
     52          1           0        2.859453    2.800014   -0.451891
     53          1           0        2.084503    2.936355    1.121994
     54          8           0        1.588437    0.175251    2.586139
     55          6           0        4.255497    2.930980    1.200204
     56          1           0        5.084629    2.394948    0.717975
     57          1           0        4.312085    2.687667    2.267125
     58          6           0        4.455152    4.442886    1.032965
     59          1           0        4.400778    4.707169   -0.036276
     60          1           0        3.651317    4.991864    1.529433
     61          7           0        5.721247    4.878545    1.626556
     62          1           0        6.528597    4.591791    1.083490
     63          7           0        4.795074    6.628179    2.882989
     64          1           0        5.011758    7.531356    3.291867
     65          1           0        4.499803    5.965081    3.593362
     66          7           0        6.900716    6.947399    1.968409
     67          1           0        7.554759    6.570065    1.279616
     68          6           0        5.885044    6.183516    2.124314
     69          8           0        3.831264    0.068606    2.467361
     70          1           0        3.725819   -0.251605    3.384389
 ---------------------------------------------------------------------

 SCF Done:  E(RB3LYP) =  -1582.12138375     A.U. after    1 cycles

 Alpha  occ. eigenvalues --  -19.33253 -19.28495 -19.25999 -19.22133 -14.58865
 Alpha  occ. eigenvalues --  -14.50440 -14.49436 -14.46697 -14.41036 -14.39380
 Alpha  occ. eigenvalues --  -14.33901 -10.45934 -10.43456 -10.40462 -10.39494
 Alpha  occ. eigenvalues --  -10.35116 -10.34913 -10.34574 -10.33934 -10.33327
 Alpha  occ. eigenvalues --  -10.32997 -10.30726 -10.30152 -10.29796 -10.29693
 Alpha  occ. eigenvalues --  -10.29426 -10.29387 -10.28762 -10.28712 -10.28029
 Alpha  occ. eigenvalues --  -10.27650 -10.26370 -10.26095 -10.24244  -1.24471
 Alpha  occ. eigenvalues --   -1.18745  -1.15373  -1.14266  -1.13252  -1.09416
 Alpha  occ. eigenvalues --   -1.06516  -1.03376  -1.02914  -0.95085  -0.94563
 Alpha  occ. eigenvalues --   -0.94179  -0.91007  -0.90072  -0.89282  -0.88651
 Alpha  occ. eigenvalues --   -0.84518  -0.84357  -0.83472  -0.82080  -0.80476
 Alpha  occ. eigenvalues --   -0.80051  -0.77282  -0.74219  -0.73754  -0.73193
 Alpha  occ. eigenvalues --   -0.72828  -0.71787  -0.70600  -0.70346  -0.69335
 Alpha  occ. eigenvalues --   -0.68241  -0.68063  -0.66230  -0.65681  -0.65248
 Alpha  occ. eigenvalues --   -0.64731  -0.64301  -0.63072  -0.62171  -0.60083
 Alpha  occ. eigenvalues --   -0.59648  -0.59554  -0.59128  -0.58337  -0.58141
 Alpha  occ. eigenvalues --   -0.57164  -0.56775  -0.55864  -0.55678  -0.55080
 Alpha  occ. eigenvalues --   -0.54693  -0.53958  -0.53818  -0.53380  -0.52969
 Alpha  occ. eigenvalues --   -0.52576  -0.52066  -0.51661  -0.51398  -0.51182
 Alpha  occ. eigenvalues --   -0.49945  -0.49672  -0.49470  -0.49410  -0.49177
 Alpha  occ. eigenvalues --   -0.48820  -0.48512  -0.46574  -0.46416  -0.46183
 Alpha  occ. eigenvalues --   -0.45762  -0.45144  -0.44799  -0.44509  -0.44205
 Alpha  occ. eigenvalues --   -0.43831  -0.42844  -0.42111  -0.42008  -0.41720
 Alpha  occ. eigenvalues --   -0.41047  -0.40669  -0.39741  -0.39298  -0.38638
 Alpha  occ. eigenvalues --   -0.36369  -0.35334  -0.33322  -0.32143  -0.31763
 Alpha  occ. eigenvalues --   -0.30952  -0.28353
 Alpha virt. eigenvalues --   -0.13545  -0.12611  -0.12132  -0.09541  -0.08760
 Alpha virt. eigenvalues --   -0.07401  -0.05778  -0.05190  -0.04904  -0.03492
 Alpha virt. eigenvalues --   -0.02518  -0.02337  -0.01915  -0.01115  -0.00342

 Mulliken charges:
               1
     1  N   -0.757320
     2  H    0.412104
     3  H    0.417860
     4  H    0.446072
     5  C   -0.123475
     6  H    0.222433
     7  C    0.674374
     8  C   -0.385473
     9  H    0.191005
    10  H    0.176759
    11  O   -0.527876
    12  C    0.017824
    13  C    0.019060
    14  H    0.174153
    15  C    0.050235
    16  C    0.318159
    17  C   -0.254455
    18  H    0.137405
    19  N   -0.678059
    20  H    0.352508
    21  C   -0.147846
    22  H    0.158312
    23  C   -0.152049
    24  H    0.156289
    25  C   -0.132463
    26  H    0.145141
    27  N   -0.642755
    28  H    0.350708
    29  C   -0.052959
    30  H    0.177425
    31  C    0.628283
    32  C   -0.079897
    33  H    0.185528
    34  O   -0.482548
    35  C   -0.267881
    36  H    0.154796
    37  H    0.128208
    38  C   -0.460439
    39  H    0.131092
    40  H    0.172931
    41  H    0.140994
    42  C   -0.453529
    43  H    0.158391
    44  H    0.178283
    45  H    0.130710
    46  N   -0.596155
    47  H    0.324329
    48  C   -0.058536
    49  H    0.225796
    50  C    0.623610
    51  C   -0.284102
    52  H    0.180562
    53  H    0.143442
    54  O   -0.532166
    55  C   -0.266331
    56  H    0.152090
    57  H    0.147189
    58  C   -0.137637
    59  H    0.146248
    60  H    0.175466
    61  N   -0.597406
    62  H    0.313046
    63  N   -0.733813
    64  H    0.343612
    65  H    0.314937
    66  N   -0.615586
    67  H    0.268548
    68  C    0.545564
    69  O   -0.514811
    70  H    0.424089
 Sum of Mulliken charges =   1.00000

 Dipole moment (field-independent basis, Debye):
    X=             -6.6040    Y=             -4.3207    Z=             14.5107  Tot=             16.5179
 Quadrupole moment (field-independent basis, Debye-Ang):
   XX=           -162.6971   YY=           -211.1812   ZZ=           -109.1323
   XY=              1.4274   XZ=            -24.5720   YZ=            -19.0768

 Normal termination of Gaussian 16 at Thu May 26 00:32:14 2022.
