 Gaussian 16, Revision C.01,
 Gaussian 16:  ES64L-G16RevC.01  3-Jul-2019

 -------------------------------------------------------------------
 # B3LYP/6-31G* guess=read geom=check nosymm integral(ultrafinegrid)
 -------------------------------------------------------------------

 ------------------------------------------------------
 Candidate Structure: Conf:217 Charge calc in gas phase
 ------------------------------------------------------
 Structure from the checkpoint file:  "conf-217.chk"
 Charge =  1 Multiplicity = 1

                          Input orientation:
 ---------------------------------------------------------------------
 Center     Atomic      Atomic             Coordinates (Angstroms)
 Number     Number       Type             X           Y           Z
 ---------------------------------------------------------------------
      1          7           0       -0.782457   -3.740563    2.360845
      2          1           0       -1.414589   -4.509619    2.124737
      3          1           0       -0.016840   -3.695431    1.636970
      4          1           0       -0.400263   -3.911685    3.306539
      5          6           0       -1.441226   -2.382557    2.260468
      6          1           0       -2.513330   -2.548645    2.131248
      7          6           0       -0.793814   -1.766193    0.991217
      8          6           0       -1.174878   -1.527023    3.535686
      9          1           0       -0.181449   -1.072332    3.446266
     10          1           0       -1.897003   -0.703399    3.519451
     11          8           0        0.138505   -2.376202    0.461768
     12          6           0       -1.276094   -2.304486    4.813535
     13          6           0       -2.381637   -2.488063    5.614372
     14          1           0       -3.378311   -2.076854    5.524287
     15          6           0       -0.201110   -3.065037    5.414541
     16          6           0       -0.735520   -3.690535    6.575185
     17          6           0        1.159988   -3.266547    5.094614
     18          1           0        1.615742   -2.766507    4.241070
     19          7           0       -2.061970   -3.316029    6.663353
     20          1           0       -2.689321   -3.565507    7.414421
     21          6           0        1.370721   -4.695462    7.058913
     22          1           0        1.998709   -5.322476    7.683969
     23          6           0        0.038526   -4.506271    7.406496
     24          1           0       -0.381756   -4.972842    8.292589
     25          6           0        1.927554   -4.081138    5.918116
     26          1           0        2.977098   -4.238997    5.689425
     27          7           0       -1.241767   -0.562898    0.603242
     28          1           0       -2.093899   -0.212043    1.021599
     29          6           0       -0.720937    0.154717   -0.587270
     30          1           0       -1.109686    1.175460   -0.478872
     31          6           0        0.831953    0.236354   -0.500167
     32          6           0       -1.206435   -0.416663   -1.942555
     33          1           0       -0.572193   -1.279484   -2.174405
     34          8           0        1.554480   -0.070953   -1.433403
     35          6           0       -0.996473    0.648549   -3.045180
     36          1           0       -1.733620    1.453524   -2.902988
     37          1           0       -0.005966    1.096150   -2.924274
     38          6           0       -2.673732   -0.866650   -1.877336
     39          1           0       -3.337639   -0.040027   -1.588898
     40          1           0       -3.006292   -1.221119   -2.856364
     41          1           0       -2.829067   -1.691288   -1.172284
     42          6           0       -1.101578    0.096015   -4.470936
     43          1           0       -0.914127    0.889967   -5.201129
     44          1           0       -2.091405   -0.319243   -4.689376
     45          1           0       -0.358008   -0.691251   -4.639302
     46          7           0        1.313852    0.712047    0.684835
     47          1           0        0.678668    0.928633    1.438459
     48          6           0        2.749741    0.780369    0.935009
     49          1           0        3.200214   -0.035270    0.354769
     50          6           0        3.093051    0.505350    2.393571
     51          6           0        3.403734    2.094547    0.456248
     52          1           0        4.483394    2.007805    0.604023
     53          1           0        3.230270    2.160743   -0.623521
     54          8           0        4.183586    0.678255    2.877353
     55          6           0        2.883115    3.356663    1.152915
     56          1           0        3.040605    3.279630    2.239210
     57          1           0        1.800411    3.454915    0.999097
     58          6           0        3.550183    4.640106    0.644550
     59          1           0        3.405997    4.718656   -0.439841
     60          1           0        3.052187    5.513950    1.097955
     61          7           0        4.981476    4.625929    0.901982
     62          1           0        5.225782    4.397680    1.860886
     63          7           0        7.104035    5.546331    0.861674
     64          1           0        7.706021    6.215052    0.393794
     65          1           0        7.491680    4.608747    0.834694
     66          7           0        5.480552    6.571186   -0.445089
     67          1           0        4.473827    6.620391   -0.599785
     68          6           0        5.797288    5.638106    0.373899
     69          8           0        2.044774    0.030541    3.139938
     70          1           0        2.402109   -0.063759    4.044896
 ---------------------------------------------------------------------

 SCF Done:  E(RB3LYP) =  -1582.11392288     A.U. after    1 cycles

 Alpha  occ. eigenvalues --  -19.30882 -19.28050 -19.24259 -19.21472 -14.59870
 Alpha  occ. eigenvalues --  -14.51561 -14.50466 -14.46242 -14.40042 -14.37953
 Alpha  occ. eigenvalues --  -14.32790 -10.44812 -10.42503 -10.41709 -10.39089
 Alpha  occ. eigenvalues --  -10.35320 -10.35157 -10.34961 -10.34055 -10.33582
 Alpha  occ. eigenvalues --  -10.32168 -10.31666 -10.31258 -10.30857 -10.30405
 Alpha  occ. eigenvalues --  -10.29727 -10.29673 -10.28657 -10.28607 -10.27244
 Alpha  occ. eigenvalues --  -10.26840 -10.26758 -10.26028 -10.24361  -1.21115
 Alpha  occ. eigenvalues --   -1.20441  -1.14340  -1.13591  -1.12058  -1.10418
 Alpha  occ. eigenvalues --   -1.07650  -1.02611  -1.01975  -0.96084  -0.95027
 Alpha  occ. eigenvalues --   -0.93623  -0.91565  -0.89605  -0.88492  -0.87966
 Alpha  occ. eigenvalues --   -0.85460  -0.84689  -0.83594  -0.82109  -0.81045
 Alpha  occ. eigenvalues --   -0.79906  -0.75785  -0.74963  -0.74372  -0.74114
 Alpha  occ. eigenvalues --   -0.73238  -0.71980  -0.71176  -0.70860  -0.69358
 Alpha  occ. eigenvalues --   -0.68723  -0.66628  -0.66355  -0.65644  -0.65421
 Alpha  occ. eigenvalues --   -0.63802  -0.63398  -0.62926  -0.60591  -0.59881
 Alpha  occ. eigenvalues --   -0.59345  -0.58933  -0.58673  -0.58619  -0.57476
 Alpha  occ. eigenvalues --   -0.57033  -0.56659  -0.56051  -0.55408  -0.55293
 Alpha  occ. eigenvalues --   -0.54906  -0.54165  -0.53835  -0.53726  -0.53402
 Alpha  occ. eigenvalues --   -0.53132  -0.52355  -0.51968  -0.51390  -0.50620
 Alpha  occ. eigenvalues --   -0.50232  -0.49939  -0.49922  -0.49680  -0.48532
 Alpha  occ. eigenvalues --   -0.47249  -0.47072  -0.46594  -0.46435  -0.46046
 Alpha  occ. eigenvalues --   -0.45561  -0.45235  -0.44259  -0.43804  -0.43488
 Alpha  occ. eigenvalues --   -0.42706  -0.42507  -0.42264  -0.41971  -0.40909
 Alpha  occ. eigenvalues --   -0.40628  -0.40392  -0.39919  -0.39843  -0.38140
 Alpha  occ. eigenvalues --   -0.35287  -0.34797  -0.34363  -0.32812  -0.30643
 Alpha  occ. eigenvalues --   -0.29932  -0.27521
 Alpha virt. eigenvalues --   -0.13912  -0.13096  -0.11278  -0.09757  -0.09473
 Alpha virt. eigenvalues --   -0.09189  -0.06772  -0.06157  -0.05103  -0.03270
 Alpha virt. eigenvalues --   -0.03071  -0.02020  -0.01254  -0.01007   0.00065

 Mulliken charges:
               1
     1  N   -0.765021
     2  H    0.413483
     3  H    0.431387
     4  H    0.417728
     5  C   -0.104450
     6  H    0.209798
     7  C    0.656019
     8  C   -0.402128
     9  H    0.215850
    10  H    0.181707
    11  O   -0.514615
    12  C    0.025106
    13  C    0.019540
    14  H    0.177888
    15  C    0.032266
    16  C    0.323912
    17  C   -0.254009
    18  H    0.133632
    19  N   -0.678568
    20  H    0.355196
    21  C   -0.148054
    22  H    0.164821
    23  C   -0.150327
    24  H    0.161099
    25  C   -0.128202
    26  H    0.159054
    27  N   -0.620946
    28  H    0.350757
    29  C   -0.071269
    30  H    0.174642
    31  C    0.641099
    32  C   -0.065125
    33  H    0.172754
    34  O   -0.496476
    35  C   -0.271100
    36  H    0.128625
    37  H    0.169548
    38  C   -0.466355
    39  H    0.139408
    40  H    0.182141
    41  H    0.116998
    42  C   -0.455698
    43  H    0.163399
    44  H    0.148186
    45  H    0.162253
    46  N   -0.613481
    47  H    0.333251
    48  C   -0.056889
    49  H    0.222612
    50  C    0.591183
    51  C   -0.250151
    52  H    0.186857
    53  H    0.171438
    54  O   -0.438055
    55  C   -0.302641
    56  H    0.140725
    57  H    0.131715
    58  C   -0.127311
    59  H    0.161051
    60  H    0.145773
    61  N   -0.601840
    62  H    0.323394
    63  N   -0.750725
    64  H    0.340578
    65  H    0.319860
    66  N   -0.637931
    67  H    0.276984
    68  C    0.577126
    69  O   -0.601478
    70  H    0.422001
 Sum of Mulliken charges =   1.00000

 Dipole moment (field-independent basis, Debye):
    X=             -9.4195    Y=            -13.8038    Z=             17.7915  Tot=             24.4092
 Quadrupole moment (field-independent basis, Debye-Ang):
   XX=           -177.2206   YY=           -163.6605   ZZ=           -109.1996
   XY=              2.8321   XZ=            -16.5349   YZ=            -55.2728

 Normal termination of Gaussian 16 at Thu May 26 00:32:22 2022.
