 Gaussian 16, Revision C.01,
 Gaussian 16:  ES64L-G16RevC.01  3-Jul-2019

 -------------------------------------------------------------------
 # B3LYP/6-31G* guess=read geom=check nosymm integral(ultrafinegrid)
 -------------------------------------------------------------------

 ------------------------------------------------------
 Candidate Structure: Conf:245 Charge calc in gas phase
 ------------------------------------------------------
 Structure from the checkpoint file:  "conf-245.chk"
 Charge =  1 Multiplicity = 1

                          Input orientation:
 ---------------------------------------------------------------------
 Center     Atomic      Atomic             Coordinates (Angstroms)
 Number     Number       Type             X           Y           Z
 ---------------------------------------------------------------------
      1          7           0        0.988335   -2.386130    2.442290
      2          1           0        1.271175   -2.530074    3.418549
      3          1           0        0.527229   -3.214086    2.042714
      4          1           0        1.828964   -2.226120    1.848351
      5          6           0        0.013718   -1.231042    2.343747
      6          1           0       -0.869845   -1.561468    2.898509
      7          6           0       -0.346425   -1.229519    0.842640
      8          6           0        0.605673    0.026560    3.000043
      9          1           0        1.416125    0.440749    2.385595
     10          1           0       -0.201308    0.773788    3.018131
     11          8           0       -0.487844   -2.328755    0.305494
     12          6           0        1.108209   -0.236030    4.392399
     13          6           0        2.418012   -0.118364    4.804661
     14          1           0        3.284353    0.205246    4.243208
     15          6           0        0.346415   -0.654511    5.549532
     16          6           0        1.267416   -0.774628    6.626174
     17          6           0       -1.015269   -0.922594    5.790723
     18          1           0       -1.757446   -0.810862    5.003411
     19          7           0        2.517496   -0.442558    6.137136
     20          1           0        3.363417   -0.393141    6.685174
     21          6           0       -0.474896   -1.430023    8.112656
     22          1           0       -0.816256   -1.731744    9.098167
     23          6           0        0.873140   -1.163561    7.910823
     24          1           0        1.591065   -1.248879    8.721597
     25          6           0       -1.410717   -1.307432    7.064469
     26          1           0       -2.458689   -1.511318    7.262586
     27          7           0       -0.429477   -0.052869    0.197173
     28          1           0       -0.219011    0.820282    0.670182
     29          6           0       -0.518226    0.004137   -1.272928
     30          1           0       -0.396668    1.069846   -1.503823
     31          6           0        0.707297   -0.731064   -1.886892
     32          6           0       -1.862401   -0.473604   -1.883287
     33          1           0       -1.803724   -1.561154   -1.992905
     34          8           0        0.643198   -1.381037   -2.916861
     35          6           0       -2.029301    0.149507   -3.289659
     36          1           0       -2.247151    1.223148   -3.175792
     37          1           0       -1.080765    0.069587   -3.828916
     38          6           0       -3.050565   -0.127348   -0.974691
     39          1           0       -3.100904    0.950183   -0.769245
     40          1           0       -3.990361   -0.414056   -1.454692
     41          1           0       -3.004296   -0.654620   -0.017166
     42          6           0       -3.120938   -0.511045   -4.138568
     43          1           0       -3.171420   -0.045528   -5.128671
     44          1           0       -4.114567   -0.423114   -3.686230
     45          1           0       -2.908952   -1.576542   -4.283505
     46          7           0        1.887782   -0.536026   -1.208811
     47          1           0        1.903877   -0.007437   -0.344783
     48          6           0        3.106315   -1.193869   -1.605775
     49          1           0        2.913877   -1.645830   -2.582939
     50          6           0        3.461922   -2.315249   -0.629356
     51          6           0        4.321506   -0.233021   -1.713294
     52          1           0        4.650406    0.047428   -0.704059
     53          1           0        5.146194   -0.811608   -2.140949
     54          8           0        3.069460   -2.414228    0.524403
     55          6           0        4.072703    1.035648   -2.566134
     56          1           0        3.189918    0.902933   -3.202247
     57          1           0        4.922458    1.154357   -3.248427
     58          6           0        3.955501    2.374214   -1.801713
     59          1           0        4.718487    2.431223   -1.016020
     60          1           0        4.183006    3.188020   -2.497562
     61          7           0        2.659502    2.702666   -1.209774
     62          1           0        2.002534    3.178968   -1.811722
     63          7           0        0.950749    2.844272    0.376446
     64          1           0        0.879250    2.990032    1.379283
     65          1           0        0.660655    3.687362   -0.110798
     66          7           0        2.874868    1.717097    0.966102
     67          1           0        3.797261    1.425934    0.648028
     68          6           0        2.253994    2.402963    0.061270
     69          8           0        4.330612   -3.177336   -1.163557
     70          1           0        4.554468   -3.848704   -0.489966
 ---------------------------------------------------------------------

 SCF Done:  E(RB3LYP) =  -1582.14205180     A.U. after    3 cycles

 Alpha  occ. eigenvalues --  -19.31733 -19.27110 -19.23864 -19.21005 -14.57134
 Alpha  occ. eigenvalues --  -14.48000 -14.47905 -14.47111 -14.46567 -14.45501
 Alpha  occ. eigenvalues --  -14.40145 -10.44592 -10.41315 -10.40332 -10.38439
 Alpha  occ. eigenvalues --  -10.38307 -10.34418 -10.33455 -10.33300 -10.32369
 Alpha  occ. eigenvalues --  -10.31786 -10.31394 -10.30299 -10.29357 -10.29055
 Alpha  occ. eigenvalues --  -10.28306 -10.27957 -10.27823 -10.27187 -10.26966
 Alpha  occ. eigenvalues --  -10.26855 -10.25000 -10.24823 -10.23385  -1.23058
 Alpha  occ. eigenvalues --   -1.16598  -1.13983  -1.13108  -1.11469  -1.09486
 Alpha  occ. eigenvalues --   -1.07825  -1.04560  -1.02280  -1.00440  -0.95749
 Alpha  occ. eigenvalues --   -0.93365  -0.92256  -0.90390  -0.89054  -0.86973
 Alpha  occ. eigenvalues --   -0.85661  -0.82784  -0.82267  -0.81213  -0.79177
 Alpha  occ. eigenvalues --   -0.78610  -0.78045  -0.73696  -0.72542  -0.71746
 Alpha  occ. eigenvalues --   -0.71642  -0.71572  -0.69972  -0.69442  -0.69260
 Alpha  occ. eigenvalues --   -0.68561  -0.67934  -0.66879  -0.66302  -0.64066
 Alpha  occ. eigenvalues --   -0.64021  -0.63213  -0.63076  -0.62831  -0.61830
 Alpha  occ. eigenvalues --   -0.60344  -0.59111  -0.57921  -0.57830  -0.57565
 Alpha  occ. eigenvalues --   -0.56905  -0.56441  -0.56214  -0.55527  -0.54913
 Alpha  occ. eigenvalues --   -0.54129  -0.53484  -0.52932  -0.52857  -0.52618
 Alpha  occ. eigenvalues --   -0.52248  -0.52188  -0.51909  -0.51545  -0.51215
 Alpha  occ. eigenvalues --   -0.50745  -0.50099  -0.49605  -0.49005  -0.48339
 Alpha  occ. eigenvalues --   -0.48018  -0.47563  -0.47088  -0.46154  -0.45271
 Alpha  occ. eigenvalues --   -0.45214  -0.44872  -0.44593  -0.44478  -0.44054
 Alpha  occ. eigenvalues --   -0.42831  -0.42657  -0.42533  -0.41222  -0.40565
 Alpha  occ. eigenvalues --   -0.39769  -0.39350  -0.38482  -0.38324  -0.37961
 Alpha  occ. eigenvalues --   -0.37818  -0.36782  -0.35232  -0.34018  -0.33808
 Alpha  occ. eigenvalues --   -0.31679  -0.30216
 Alpha virt. eigenvalues --   -0.11636  -0.11269  -0.10493  -0.07782  -0.06751
 Alpha virt. eigenvalues --   -0.06554  -0.05988  -0.05438  -0.03855  -0.03291
 Alpha virt. eigenvalues --   -0.02536  -0.02215  -0.01366  -0.01138  -0.00617

 Mulliken charges:
               1
     1  N   -0.754126
     2  H    0.405145
     3  H    0.416608
     4  H    0.446343
     5  C   -0.123764
     6  H    0.223478
     7  C    0.654416
     8  C   -0.420913
     9  H    0.223373
    10  H    0.173516
    11  O   -0.530080
    12  C   -0.000151
    13  C   -0.000414
    14  H    0.177860
    15  C    0.082599
    16  C    0.309802
    17  C   -0.223029
    18  H    0.124528
    19  N   -0.679307
    20  H    0.346207
    21  C   -0.148227
    22  H    0.153108
    23  C   -0.155593
    24  H    0.148282
    25  C   -0.134208
    26  H    0.147321
    27  N   -0.650485
    28  H    0.383092
    29  C   -0.051743
    30  H    0.162747
    31  C    0.622239
    32  C   -0.065519
    33  H    0.172875
    34  O   -0.497204
    35  C   -0.269033
    36  H    0.117959
    37  H    0.161095
    38  C   -0.456941
    39  H    0.131622
    40  H    0.169812
    41  H    0.140657
    42  C   -0.453470
    43  H    0.154614
    44  H    0.149308
    45  H    0.160204
    46  N   -0.623510
    47  H    0.345956
    48  C   -0.056753
    49  H    0.226848
    50  C    0.616416
    51  C   -0.299081
    52  H    0.138385
    53  H    0.188587
    54  O   -0.517932
    55  C   -0.259698
    56  H    0.171490
    57  H    0.169314
    58  C   -0.165292
    59  H    0.169811
    60  H    0.178340
    61  N   -0.586536
    62  H    0.336491
    63  N   -0.773030
    64  H    0.354307
    65  H    0.336885
    66  N   -0.679897
    67  H    0.295781
    68  C    0.590951
    69  O   -0.531044
    70  H    0.428609
 Sum of Mulliken charges =   1.00000

 Dipole moment (field-independent basis, Debye):
    X=             10.4665    Y=              0.3508    Z=              8.9885  Tot=             13.8009
 Quadrupole moment (field-independent basis, Debye-Ang):
   XX=           -146.2249   YY=           -162.8419   ZZ=           -134.3614
   XY=             -7.9753   XZ=              8.5777   YZ=            -32.2114

 Normal termination of Gaussian 16 at Thu May 26 00:33:24 2022.
