 Gaussian 16, Revision C.01,
 Gaussian 16:  ES64L-G16RevC.01  3-Jul-2019

 -------------------------------------------------------------------
 # B3LYP/6-31G* guess=read geom=check nosymm integral(ultrafinegrid)
 -------------------------------------------------------------------

 -----------------------------------------------------
 Candidate Structure: Conf:34 Charge calc in gas phase
 -----------------------------------------------------
 Structure from the checkpoint file:  "conf-34.chk"
 Charge =  1 Multiplicity = 1

                          Input orientation:
 ---------------------------------------------------------------------
 Center     Atomic      Atomic             Coordinates (Angstroms)
 Number     Number       Type             X           Y           Z
 ---------------------------------------------------------------------
      1          7           0       -0.732559   -4.416087    1.935527
      2          1           0       -1.701854   -4.639768    2.178077
      3          1           0       -0.653744   -4.326679    0.875314
      4          1           0       -0.125292   -5.159719    2.292812
      5          6           0       -0.298008   -3.034138    2.383372
      6          1           0       -1.012151   -2.672455    3.125933
      7          6           0       -0.383748   -2.215299    1.060971
      8          6           0        1.127906   -3.114153    2.987392
      9          1           0        1.086230   -3.838760    3.815555
     10          1           0        1.802642   -3.522950    2.224988
     11          8           0       -0.471946   -2.864479    0.011684
     12          6           0        1.652120   -1.794847    3.463862
     13          6           0        2.749484   -1.143710    2.949235
     14          1           0        3.394932   -1.434355    2.133093
     15          6           0        1.123980   -0.955600    4.516249
     16          6           0        1.955836    0.198752    4.571939
     17          6           0        0.048171   -1.058215    5.420263
     18          1           0       -0.590276   -1.939337    5.435623
     19          7           0        2.934642    0.047134    3.605757
     20          1           0        3.672111    0.707699    3.397690
     21          6           0        0.659591    1.107924    6.354453
     22          1           0        0.461810    1.894734    7.075843
     23          6           0        1.734979    1.235683    5.483969
     24          1           0        2.381706    2.107852    5.516242
     25          6           0       -0.174019   -0.028792    6.325390
     26          1           0       -0.996945   -0.101350    7.030043
     27          7           0       -0.414153   -0.884957    1.206506
     28          1           0       -0.241389   -0.556607    2.152429
     29          6           0       -0.157933    0.127953    0.159767
     30          1           0       -0.551483    1.059610    0.580496
     31          6           0        1.381407    0.227834    0.015933
     32          6           0       -0.872718   -0.139562   -1.190162
     33          1           0       -0.442295   -1.056447   -1.602332
     34          8           0        2.072818   -0.778393   -0.095687
     35          6           0       -0.588563    0.990631   -2.211083
     36          1           0        0.493080    1.069290   -2.376960
     37          1           0       -1.008274    0.660064   -3.168959
     38          6           0       -2.379961   -0.359934   -0.988409
     39          1           0       -2.852005    0.472039   -0.453392
     40          1           0       -2.875442   -0.452463   -1.960818
     41          1           0       -2.581014   -1.279123   -0.431578
     42          6           0       -1.158140    2.378046   -1.883634
     43          1           0       -0.911636    3.084373   -2.682847
     44          1           0       -0.755625    2.799139   -0.952959
     45          1           0       -2.248578    2.361548   -1.788446
     46          7           0        1.890034    1.487204    0.071181
     47          1           0        1.280731    2.288913    0.179605
     48          6           0        3.325348    1.755793    0.073123
     49          1           0        3.827352    0.816053    0.308678
     50          6           0        3.569869    2.781265    1.174712
     51          6           0        3.825101    2.283112   -1.289986
     52          1           0        3.531702    1.539196   -2.040334
     53          1           0        3.286981    3.210693   -1.522871
     54          8           0        2.917195    3.789389    1.313378
     55          6           0        5.340639    2.514610   -1.350468
     56          1           0        5.876872    1.600287   -1.067070
     57          1           0        5.632218    3.287880   -0.625216
     58          6           0        5.795110    2.939399   -2.750262
     59          1           0        5.541042    2.149136   -3.466750
     60          1           0        5.244178    3.843976   -3.063200
     61          7           0        7.235353    3.125596   -2.789315
     62          1           0        7.594059    3.730574   -2.057216
     63          7           0        9.225045    3.662666   -3.840076
     64          1           0        9.697877    3.724848   -4.735099
     65          1           0        9.712001    3.043600   -3.200047
     66          7           0        7.373780    3.309391   -5.197367
     67          1           0        6.357283    3.229812   -5.180480
     68          6           0        7.874339    3.351974   -4.018771
     69          8           0        4.602474    2.448075    1.991147
     70          1           0        4.734845    3.205037    2.597220
 ---------------------------------------------------------------------

 SCF Done:  E(RB3LYP) =  -1582.11586435     A.U. after    1 cycles

 Alpha  occ. eigenvalues --  -19.31551 -19.27264 -19.25411 -19.22459 -14.60372
 Alpha  occ. eigenvalues --  -14.50376 -14.48474 -14.47520 -14.40497 -14.38345
 Alpha  occ. eigenvalues --  -14.33223 -10.44061 -10.43309 -10.40978 -10.39882
 Alpha  occ. eigenvalues --  -10.35371 -10.34547 -10.34502 -10.32763 -10.32588
 Alpha  occ. eigenvalues --  -10.32257 -10.29717 -10.29329 -10.29295 -10.29198
 Alpha  occ. eigenvalues --  -10.29005 -10.28861 -10.28762 -10.28053 -10.27922
 Alpha  occ. eigenvalues --  -10.27598 -10.27458 -10.26720 -10.26417  -1.21994
 Alpha  occ. eigenvalues --   -1.19707  -1.14676  -1.14043  -1.13111  -1.08521
 Alpha  occ. eigenvalues --   -1.06770  -1.03761  -1.02423  -0.94921  -0.94096
 Alpha  occ. eigenvalues --   -0.93658  -0.91654  -0.89556  -0.88599  -0.88368
 Alpha  occ. eigenvalues --   -0.84795  -0.83664  -0.83321  -0.82463  -0.80804
 Alpha  occ. eigenvalues --   -0.79739  -0.76241  -0.74620  -0.74119  -0.73521
 Alpha  occ. eigenvalues --   -0.73046  -0.72281  -0.71037  -0.69790  -0.69559
 Alpha  occ. eigenvalues --   -0.68195  -0.67217  -0.66068  -0.65303  -0.64145
 Alpha  occ. eigenvalues --   -0.63392  -0.63126  -0.62570  -0.60968  -0.60107
 Alpha  occ. eigenvalues --   -0.59222  -0.58935  -0.58831  -0.57972  -0.57752
 Alpha  occ. eigenvalues --   -0.57315  -0.56603  -0.56140  -0.55687  -0.54991
 Alpha  occ. eigenvalues --   -0.54138  -0.53833  -0.53352  -0.53085  -0.52693
 Alpha  occ. eigenvalues --   -0.52187  -0.51954  -0.51672  -0.51383  -0.51302
 Alpha  occ. eigenvalues --   -0.50784  -0.50356  -0.50182  -0.49194  -0.48718
 Alpha  occ. eigenvalues --   -0.47920  -0.47387  -0.47267  -0.47071  -0.45750
 Alpha  occ. eigenvalues --   -0.45434  -0.44607  -0.43968  -0.43802  -0.43619
 Alpha  occ. eigenvalues --   -0.43353  -0.42971  -0.42641  -0.42290  -0.41734
 Alpha  occ. eigenvalues --   -0.41225  -0.40980  -0.40384  -0.39042  -0.37958
 Alpha  occ. eigenvalues --   -0.36311  -0.35807  -0.32499  -0.31103  -0.30911
 Alpha  occ. eigenvalues --   -0.30346  -0.27968
 Alpha virt. eigenvalues --   -0.13318  -0.11565  -0.11255  -0.10782  -0.08457
 Alpha virt. eigenvalues --   -0.07634  -0.06979  -0.05359  -0.04591  -0.04101
 Alpha virt. eigenvalues --   -0.02286  -0.01639  -0.01423  -0.00668  -0.00231

 Mulliken charges:
               1
     1  N   -0.758686
     2  H    0.416388
     3  H    0.435196
     4  H    0.414428
     5  C   -0.127627
     6  H    0.216370
     7  C    0.680254
     8  C   -0.371556
     9  H    0.178745
    10  H    0.191145
    11  O   -0.532727
    12  C    0.017894
    13  C    0.029420
    14  H    0.192261
    15  C    0.063679
    16  C    0.308287
    17  C   -0.225066
    18  H    0.113294
    19  N   -0.695633
    20  H    0.350164
    21  C   -0.149037
    22  H    0.154896
    23  C   -0.154075
    24  H    0.143859
    25  C   -0.132849
    26  H    0.148059
    27  N   -0.595839
    28  H    0.366901
    29  C   -0.067295
    30  H    0.159430
    31  C    0.637420
    32  C   -0.090808
    33  H    0.185872
    34  O   -0.530217
    35  C   -0.283775
    36  H    0.148653
    37  H    0.162495
    38  C   -0.458097
    39  H    0.151042
    40  H    0.169129
    41  H    0.143537
    42  C   -0.459984
    43  H    0.171794
    44  H    0.124889
    45  H    0.166801
    46  N   -0.613941
    47  H    0.357029
    48  C   -0.030674
    49  H    0.193375
    50  C    0.579370
    51  C   -0.274438
    52  H    0.172499
    53  H    0.163239
    54  O   -0.445725
    55  C   -0.291780
    56  H    0.162971
    57  H    0.141825
    58  C   -0.121707
    59  H    0.161918
    60  H    0.144830
    61  N   -0.609147
    62  H    0.320539
    63  N   -0.750846
    64  H    0.341482
    65  H    0.320218
    66  N   -0.637301
    67  H    0.276130
    68  C    0.578709
    69  O   -0.573336
    70  H    0.425727
 Sum of Mulliken charges =   1.00000

 Dipole moment (field-independent basis, Debye):
    X=              1.7036    Y=             -8.7129    Z=             12.7282  Tot=             15.5185
 Quadrupole moment (field-independent basis, Debye-Ang):
   XX=           -158.4830   YY=           -133.5152   ZZ=           -179.1771
   XY=             23.8432   XZ=             21.0997   YZ=            -16.9682

 Normal termination of Gaussian 16 at Thu May 26 00:24:47 2022.
