 Gaussian 16, Revision C.01,
 Gaussian 16:  ES64L-G16RevC.01  3-Jul-2019

 -------------------------------------------------------------------
 # B3LYP/6-31G* guess=read geom=check nosymm integral(ultrafinegrid)
 -------------------------------------------------------------------

 ------------------------------------------------------
 Candidate Structure: Conf:472 Charge calc in gas phase
 ------------------------------------------------------
 Structure from the checkpoint file:  "conf-472.chk"
 Charge =  1 Multiplicity = 1

                          Input orientation:
 ---------------------------------------------------------------------
 Center     Atomic      Atomic             Coordinates (Angstroms)
 Number     Number       Type             X           Y           Z
 ---------------------------------------------------------------------
      1          7           0        0.797786   -1.919633   -1.839912
      2          1           0        0.474119   -2.805548   -2.229706
      3          1           0        0.267960   -1.162304   -2.277097
      4          1           0        2.123888   -1.663771   -2.137482
      5          6           0        0.527792   -1.880510   -0.375915
      6          1           0       -0.507545   -2.197024   -0.188708
      7          6           0        0.631984   -0.387722    0.020206
      8          6           0        1.480770   -2.864738    0.355645
      9          1           0        1.519264   -3.776278   -0.256595
     10          1           0        2.498154   -2.455810    0.347862
     11          8           0        0.656200    0.477519   -0.859745
     12          6           0        1.095605   -3.242746    1.762307
     13          6           0        0.147966   -4.179689    2.112436
     14          1           0       -0.494540   -4.781220    1.482807
     15          6           0        1.687930   -2.779835    3.000794
     16          6           0        1.042458   -3.482559    4.056288
     17          6           0        2.697281   -1.848911    3.325959
     18          1           0        3.190117   -1.257579    2.560030
     19          7           0        0.113442   -4.324946    3.479031
     20          1           0       -0.503594   -4.945122    3.981663
     21          6           0        2.377123   -2.373320    5.687696
     22          1           0        2.663211   -2.201659    6.721142
     23          6           0        1.375859   -3.291883    5.401694
     24          1           0        0.873388   -3.842830    6.191615
     25          6           0        3.027362   -1.657061    4.660771
     26          1           0        3.800579   -0.939593    4.919562
     27          7           0        0.660709   -0.123870    1.338052
     28          1           0        0.718116   -0.896107    1.991331
     29          6           0        0.758928    1.234714    1.890039
     30          1           0        0.912162    1.076596    2.963047
     31          6           0        2.108365    1.868600    1.440346
     32          6           0       -0.516857    2.095338    1.719300
     33          1           0       -0.615077    2.378079    0.663053
     34          8           0        3.160575    1.405434    1.880406
     35          6           0       -0.397673    3.377303    2.587749
     36          1           0       -0.705107    3.131205    3.612652
     37          1           0        0.647764    3.700790    2.657070
     38          6           0       -1.783512    1.306207    2.091482
     39          1           0       -1.724157    0.927683    3.120411
     40          1           0       -2.664082    1.953479    2.027694
     41          1           0       -1.951993    0.454514    1.426233
     42          6           0       -1.233168    4.553432    2.066066
     43          1           0       -1.169730    5.410067    2.745420
     44          1           0       -2.292414    4.289129    1.969582
     45          1           0       -0.877934    4.887413    1.082528
     46          7           0        2.062826    2.910893    0.578756
     47          1           0        1.182595    3.213495    0.178590
     48          6           0        3.229026    3.684992    0.190059
     49          1           0        3.707765    4.098883    1.087859
     50          6           0        2.717234    4.863713   -0.631733
     51          6           0        4.316534    2.873516   -0.554138
     52          1           0        5.138124    3.557289   -0.796094
     53          1           0        4.690975    2.147270    0.172872
     54          8           0        1.558981    5.036749   -0.943380
     55          6           0        3.838157    2.142064   -1.810879
     56          1           0        3.620606    2.852706   -2.618122
     57          1           0        2.909734    1.598318   -1.599537
     58          6           0        4.925253    1.162886   -2.282578
     59          1           0        5.824420    1.701071   -2.595744
     60          1           0        5.240742    0.501533   -1.465765
     61          7           0        4.514214    0.353800   -3.442657
     62          1           0        4.901607    0.595497   -4.343978
     63          7           0        3.123451   -1.134936   -4.569689
     64          1           0        2.905685   -2.119802   -4.627259
     65          1           0        3.372606   -0.687766   -5.440745
     66          7           0        3.250800   -1.247132   -2.273842
     67          1           0        3.718805   -0.921480   -1.435980
     68          6           0        3.647666   -0.673984   -3.395800
     69          8           0        3.714671    5.698540   -0.978753
     70          1           0        3.312082    6.433883   -1.479953
 ---------------------------------------------------------------------

 SCF Done:  E(RB3LYP) =  -1582.16136898     A.U. after    1 cycles

 Alpha  occ. eigenvalues --  -19.29167 -19.23800 -19.22231 -19.19694 -14.50021
 Alpha  occ. eigenvalues --  -14.49370 -14.48209 -14.46598 -14.45883 -14.45459
 Alpha  occ. eigenvalues --  -14.44414 -10.44714 -10.41699 -10.39304 -10.37223
 Alpha  occ. eigenvalues --  -10.34985 -10.34640 -10.33326 -10.32049 -10.30895
 Alpha  occ. eigenvalues --  -10.30624 -10.30002 -10.28789 -10.28191 -10.27567
 Alpha  occ. eigenvalues --  -10.27410 -10.26904 -10.26490 -10.26161 -10.25865
 Alpha  occ. eigenvalues --  -10.25510 -10.25465 -10.25175 -10.24016  -1.20237
 Alpha  occ. eigenvalues --   -1.14187  -1.13345  -1.11768  -1.11196  -1.06490
 Alpha  occ. eigenvalues --   -1.04142  -1.03315  -1.02324  -1.01173  -1.00026
 Alpha  occ. eigenvalues --   -0.91723  -0.90541  -0.89922  -0.88697  -0.85411
 Alpha  occ. eigenvalues --   -0.84697  -0.81483  -0.81259  -0.79691  -0.79349
 Alpha  occ. eigenvalues --   -0.78340  -0.75714  -0.74590  -0.71878  -0.71192
 Alpha  occ. eigenvalues --   -0.70734  -0.70470  -0.70194  -0.68082  -0.67395
 Alpha  occ. eigenvalues --   -0.67213  -0.66106  -0.65930  -0.64799  -0.64371
 Alpha  occ. eigenvalues --   -0.62223  -0.61890  -0.61478  -0.61347  -0.59719
 Alpha  occ. eigenvalues --   -0.59309  -0.58468  -0.58171  -0.57265  -0.57046
 Alpha  occ. eigenvalues --   -0.56557  -0.55555  -0.55058  -0.54785  -0.54245
 Alpha  occ. eigenvalues --   -0.53736  -0.53266  -0.52690  -0.51890  -0.51553
 Alpha  occ. eigenvalues --   -0.51101  -0.50760  -0.50446  -0.50205  -0.49679
 Alpha  occ. eigenvalues --   -0.49297  -0.48794  -0.48544  -0.48204  -0.47772
 Alpha  occ. eigenvalues --   -0.47214  -0.47069  -0.46149  -0.45608  -0.45125
 Alpha  occ. eigenvalues --   -0.44995  -0.44228  -0.43948  -0.43276  -0.42996
 Alpha  occ. eigenvalues --   -0.41406  -0.41372  -0.41145  -0.41010  -0.40901
 Alpha  occ. eigenvalues --   -0.40359  -0.39804  -0.39749  -0.37778  -0.37295
 Alpha  occ. eigenvalues --   -0.36240  -0.36036  -0.35623  -0.33768  -0.32711
 Alpha  occ. eigenvalues --   -0.30255  -0.28601
 Alpha virt. eigenvalues --   -0.09989  -0.09308  -0.08827  -0.08699  -0.06795
 Alpha virt. eigenvalues --   -0.06415  -0.05285  -0.04370  -0.03525  -0.03008
 Alpha virt. eigenvalues --   -0.02241  -0.01312  -0.00001   0.00456   0.00729

 Mulliken charges:
               1
     1  N   -0.791338
     2  H    0.345373
     3  H    0.371952
     4  H    0.457379
     5  C   -0.088047
     6  H    0.187902
     7  C    0.625706
     8  C   -0.358711
     9  H    0.162728
    10  H    0.166647
    11  O   -0.546641
    12  C    0.028702
    13  C    0.013337
    14  H    0.158720
    15  C    0.038786
    16  C    0.320252
    17  C   -0.224336
    18  H    0.150045
    19  N   -0.680015
    20  H    0.343799
    21  C   -0.149087
    22  H    0.146486
    23  C   -0.157659
    24  H    0.143427
    25  C   -0.140379
    26  H    0.146156
    27  N   -0.618060
    28  H    0.375638
    29  C   -0.037491
    30  H    0.181413
    31  C    0.604133
    32  C   -0.106694
    33  H    0.150958
    34  O   -0.531027
    35  C   -0.269599
    36  H    0.147204
    37  H    0.141700
    38  C   -0.457265
    39  H    0.147847
    40  H    0.165644
    41  H    0.141672
    42  C   -0.459379
    43  H    0.158732
    44  H    0.153538
    45  H    0.156377
    46  N   -0.616864
    47  H    0.376512
    48  C   -0.019119
    49  H    0.202203
    50  C    0.581657
    51  C   -0.293040
    52  H    0.169417
    53  H    0.189313
    54  O   -0.460049
    55  C   -0.289364
    56  H    0.153504
    57  H    0.193471
    58  C   -0.170499
    59  H    0.183361
    60  H    0.176651
    61  N   -0.597329
    62  H    0.350811
    63  N   -0.759277
    64  H    0.366743
    65  H    0.359731
    66  N   -0.800672
    67  H    0.346526
    68  C    0.774523
    69  O   -0.562958
    70  H    0.428220
 Sum of Mulliken charges =   1.00000

 Dipole moment (field-independent basis, Debye):
    X=             10.0431    Y=             -3.9683    Z=             -7.8854  Tot=             13.3713
 Quadrupole moment (field-independent basis, Debye-Ang):
   XX=           -149.5260   YY=           -139.5264   ZZ=           -122.0570
   XY=             20.9700   XZ=            -51.2557   YZ=             -6.2148

 Normal termination of Gaussian 16 at Thu May 26 00:32:19 2022.
