 Gaussian 16, Revision C.01,
 Gaussian 16:  ES64L-G16RevC.01  3-Jul-2019

 -------------------------------------------------------------------
 # B3LYP/6-31G* guess=read geom=check nosymm integral(ultrafinegrid)
 -------------------------------------------------------------------

 ------------------------------------------------------
 Candidate Structure: Conf:474 Charge calc in gas phase
 ------------------------------------------------------
 Structure from the checkpoint file:  "conf-474.chk"
 Charge =  1 Multiplicity = 1

                          Input orientation:
 ---------------------------------------------------------------------
 Center     Atomic      Atomic             Coordinates (Angstroms)
 Number     Number       Type             X           Y           Z
 ---------------------------------------------------------------------
      1          7           0       -0.498882   -4.339408   -0.019173
      2          1           0       -1.217371   -5.018515   -0.280783
      3          1           0       -0.004082   -4.001653   -0.884667
      4          1           0        0.142926   -4.787891    0.659195
      5          6           0       -1.058910   -3.082007    0.595692
      6          1           0       -2.133093   -3.228151    0.730498
      7          6           0       -0.762640   -1.997207   -0.470628
      8          6           0       -0.358064   -2.803113    1.961634
      9          1           0        0.602992   -2.322711    1.758251
     10          1           0       -0.984021   -2.083388    2.503443
     11          8           0       -0.167160   -2.331421   -1.497383
     12          6           0       -0.136194   -4.044107    2.770838
     13          6           0        1.094050   -4.631877    3.002050
     14          1           0        2.076791   -4.295633    2.697423
     15          6           0       -1.120529   -4.864360    3.438902
     16          6           0       -0.413908   -5.928382    4.060587
     17          6           0       -2.519419   -4.800753    3.580520
     18          1           0       -3.091286   -3.987877    3.138140
     19          7           0        0.929135   -5.756832    3.772144
     20          1           0        1.678492   -6.337436    4.119342
     21          6           0       -2.440270   -6.833167    4.923077
     22          1           0       -2.973916   -7.584700    5.496679
     23          6           0       -1.059291   -6.921564    4.805032
     24          1           0       -0.504606   -7.727652    5.276374
     25          6           0       -3.163879   -5.783177    4.319265
     26          1           0       -4.241829   -5.743132    4.442791
     27          7           0       -1.112763   -0.736643   -0.170976
     28          1           0       -1.700507   -0.578153    0.637226
     29          6           0       -0.851448    0.415230   -1.067699
     30          1           0       -0.980559    1.288292   -0.416574
     31          6           0        0.646616    0.392321   -1.497607
     32          6           0       -1.813062    0.550046   -2.285378
     33          1           0       -1.270234    0.171241   -3.156977
     34          8           0        0.996125    0.547493   -2.653002
     35          6           0       -2.167518    2.035293   -2.539108
     36          1           0       -2.840928    2.063758   -3.404764
     37          1           0       -2.760637    2.402550   -1.686746
     38          6           0       -3.107497   -0.261143   -2.123656
     39          1           0       -3.680325    0.043444   -1.237588
     40          1           0       -3.750538   -0.097495   -2.994091
     41          1           0       -2.919818   -1.338220   -2.062339
     42          6           0       -0.998626    2.992572   -2.799353
     43          1           0       -1.381062    3.991987   -3.032639
     44          1           0       -0.383115    2.654222   -3.637216
     45          1           0       -0.338259    3.096152   -1.929760
     46          7           0        1.529488    0.247999   -0.457218
     47          1           0        1.160587   -0.017287    0.445932
     48          6           0        2.933752   -0.041892   -0.687003
     49          1           0        3.085191   -0.012840   -1.770878
     50          6           0        3.248735   -1.457527   -0.208964
     51          6           0        3.882269    0.987185   -0.025569
     52          1           0        3.699963    0.996672    1.059846
     53          1           0        4.909463    0.640231   -0.178145
     54          8           0        2.515025   -2.162510    0.465612
     55          6           0        3.719312    2.394608   -0.609090
     56          1           0        2.689082    2.742873   -0.460836
     57          1           0        3.894381    2.366144   -1.690672
     58          6           0        4.672738    3.431245    0.013365
     59          1           0        4.467928    4.407009   -0.438840
     60          1           0        4.468468    3.543126    1.085045
     61          7           0        6.102345    3.134581   -0.107324
     62          1           0        6.461777    2.515587    0.607814
     63          7           0        6.219812    3.745645   -2.363042
     64          1           0        6.794427    3.654944   -3.194320
     65          1           0        6.099760    4.719043   -2.100855
     66          7           0        7.680188    2.115021   -1.603306
     67          1           0        7.868546    1.499544   -0.809104
     68          6           0        6.729017    2.936647   -1.343430
     69          8           0        4.469495   -1.846721   -0.600874
     70          1           0        4.628643   -2.743265   -0.249674
 ---------------------------------------------------------------------

 SCF Done:  E(RB3LYP) =  -1582.11906659     A.U. after    3 cycles

 Alpha  occ. eigenvalues --  -19.30735 -19.27268 -19.25788 -19.21450 -14.59127
 Alpha  occ. eigenvalues --  -14.50884 -14.49567 -14.45908 -14.40803 -14.39144
 Alpha  occ. eigenvalues --  -14.33597 -10.44086 -10.43412 -10.40735 -10.38946
 Alpha  occ. eigenvalues --  -10.34881 -10.34307 -10.33941 -10.33602 -10.33169
 Alpha  occ. eigenvalues --  -10.32951 -10.30982 -10.29814 -10.29435 -10.29201
 Alpha  occ. eigenvalues --  -10.29099 -10.28589 -10.28383 -10.28177 -10.28135
 Alpha  occ. eigenvalues --  -10.26816 -10.26209 -10.25842 -10.24253  -1.21923
 Alpha  occ. eigenvalues --   -1.19704  -1.13838  -1.13401  -1.12760  -1.09508
 Alpha  occ. eigenvalues --   -1.07010  -1.02794  -1.02499  -0.94984  -0.94158
 Alpha  occ. eigenvalues --   -0.93926  -0.90937  -0.89516  -0.88735  -0.88441
 Alpha  occ. eigenvalues --   -0.84310  -0.84021  -0.83069  -0.81824  -0.80493
 Alpha  occ. eigenvalues --   -0.79692  -0.75580  -0.74390  -0.73604  -0.73070
 Alpha  occ. eigenvalues --   -0.72533  -0.72253  -0.70323  -0.70252  -0.68615
 Alpha  occ. eigenvalues --   -0.68275  -0.68027  -0.66218  -0.65057  -0.64881
 Alpha  occ. eigenvalues --   -0.64372  -0.62862  -0.62198  -0.60558  -0.59723
 Alpha  occ. eigenvalues --   -0.59559  -0.59191  -0.58393  -0.57822  -0.57457
 Alpha  occ. eigenvalues --   -0.57167  -0.56008  -0.55848  -0.55012  -0.54514
 Alpha  occ. eigenvalues --   -0.53910  -0.53701  -0.53422  -0.52530  -0.52443
 Alpha  occ. eigenvalues --   -0.52210  -0.51868  -0.51611  -0.51019  -0.50526
 Alpha  occ. eigenvalues --   -0.50012  -0.49739  -0.49304  -0.49049  -0.48864
 Alpha  occ. eigenvalues --   -0.48535  -0.48213  -0.46178  -0.45859  -0.45378
 Alpha  occ. eigenvalues --   -0.45247  -0.44307  -0.44158  -0.44062  -0.43439
 Alpha  occ. eigenvalues --   -0.42661  -0.42349  -0.42138  -0.41623  -0.41561
 Alpha  occ. eigenvalues --   -0.41135  -0.40035  -0.39389  -0.38985  -0.38692
 Alpha  occ. eigenvalues --   -0.35491  -0.34925  -0.33245  -0.31956  -0.31736
 Alpha  occ. eigenvalues --   -0.30880  -0.27809
 Alpha virt. eigenvalues --   -0.13203  -0.11945  -0.10493  -0.09934  -0.08999
 Alpha virt. eigenvalues --   -0.08234  -0.06465  -0.05015  -0.03918  -0.03158
 Alpha virt. eigenvalues --   -0.02541  -0.02135  -0.01254  -0.01090  -0.00487

 Mulliken charges:
               1
     1  N   -0.747099
     2  H    0.414135
     3  H    0.431453
     4  H    0.398149
     5  C   -0.110890
     6  H    0.215418
     7  C    0.667364
     8  C   -0.396504
     9  H    0.223786
    10  H    0.179997
    11  O   -0.522357
    12  C   -0.023823
    13  C    0.000492
    14  H    0.186897
    15  C    0.099544
    16  C    0.310182
    17  C   -0.219174
    18  H    0.119095
    19  N   -0.675928
    20  H    0.351219
    21  C   -0.146529
    22  H    0.159207
    23  C   -0.153708
    24  H    0.154552
    25  C   -0.133016
    26  H    0.151879
    27  N   -0.628760
    28  H    0.351176
    29  C   -0.058454
    30  H    0.177839
    31  C    0.631208
    32  C   -0.080988
    33  H    0.187571
    34  O   -0.486371
    35  C   -0.267807
    36  H    0.154753
    37  H    0.127399
    38  C   -0.460899
    39  H    0.131062
    40  H    0.175959
    41  H    0.132194
    42  C   -0.454069
    43  H    0.157649
    44  H    0.181186
    45  H    0.131762
    46  N   -0.592263
    47  H    0.327316
    48  C   -0.063697
    49  H    0.229313
    50  C    0.594662
    51  C   -0.275011
    52  H    0.129577
    53  H    0.174766
    54  O   -0.511589
    55  C   -0.265863
    56  H    0.139404
    57  H    0.186621
    58  C   -0.143651
    59  H    0.159540
    60  H    0.145546
    61  N   -0.584872
    62  H    0.310661
    63  N   -0.737760
    64  H    0.343649
    65  H    0.326678
    66  N   -0.628067
    67  H    0.259418
    68  C    0.552718
    69  O   -0.534265
    70  H    0.420419
 Sum of Mulliken charges =   1.00000

 Dipole moment (field-independent basis, Debye):
    X=             -1.8407    Y=            -15.3666    Z=              8.2928  Tot=             17.5582
 Quadrupole moment (field-independent basis, Debye-Ang):
   XX=           -181.4874   YY=            -83.7378   ZZ=           -184.9768
   XY=              2.6533   XZ=             17.8544   YZ=            -36.3586

 Normal termination of Gaussian 16 at Thu May 26 00:32:42 2022.
