 Gaussian 16, Revision C.01,
 Gaussian 16:  ES64L-G16RevC.01  3-Jul-2019

 -------------------------------------------------------------------
 # B3LYP/6-31G* guess=read geom=check nosymm integral(ultrafinegrid)
 -------------------------------------------------------------------

 ------------------------------------------------------
 Candidate Structure: Conf:497 Charge calc in gas phase
 ------------------------------------------------------
 Structure from the checkpoint file:  "conf-497.chk"
 Charge =  1 Multiplicity = 1

                          Input orientation:
 ---------------------------------------------------------------------
 Center     Atomic      Atomic             Coordinates (Angstroms)
 Number     Number       Type             X           Y           Z
 ---------------------------------------------------------------------
      1          7           0       -0.634300   -3.124260    1.858244
      2          1           0       -0.961009   -3.842779    1.198940
      3          1           0        0.328784   -2.873700    1.554081
      4          1           0       -0.609601   -3.457324    2.829556
      5          6           0       -1.531575   -1.915386    1.715351
      6          1           0       -2.532545   -2.252182    2.006440
      7          6           0       -1.514525   -1.655164    0.190182
      8          6           0       -1.065157   -0.801318    2.673139
      9          1           0       -0.087585   -0.429078    2.343190
     10          1           0       -1.774115    0.030485    2.582028
     11          8           0       -1.323582   -2.617877   -0.549653
     12          6           0       -1.007295   -1.259867    4.104680
     13          6           0       -2.022214   -1.178693    5.032566
     14          1           0       -3.007499   -0.740529    4.942950
     15          6           0        0.101282   -1.918495    4.762327
     16          6           0       -0.323852   -2.213294    6.087727
     17          6           0        1.413717   -2.266576    4.378027
     18          1           0        1.795110   -2.017626    3.389748
     19          7           0       -1.618921   -1.751001    6.214310
     20          1           0       -2.168752   -1.780760    7.060476
     21          6           0        1.786327   -3.191138    6.604320
     22          1           0        2.457192   -3.683144    7.301727
     23          6           0        0.505101   -2.850145    7.017305
     24          1           0        0.163343   -3.064904    8.025663
     25          6           0        2.237457   -2.898161    5.300367
     26          1           0        3.253645   -3.160100    5.020992
     27          7           0       -1.657874   -0.385532   -0.239962
     28          1           0       -1.910711    0.336694    0.419899
     29          6           0       -1.518430   -0.020715   -1.668663
     30          1           0       -1.473582    1.076076   -1.668505
     31          6           0       -0.136991   -0.543169   -2.167221
     32          6           0       -2.687460   -0.463786   -2.582269
     33          1           0       -2.525050   -1.518356   -2.828627
     34          8           0        0.011255   -1.137552   -3.218182
     35          6           0       -2.642326    0.355508   -3.893814
     36          1           0       -2.940667    1.392046   -3.673469
     37          1           0       -1.611090    0.390101   -4.257554
     38          6           0       -4.041802   -0.313684   -1.874209
     39          1           0       -4.218104    0.722960   -1.556267
     40          1           0       -4.856433   -0.589819   -2.548895
     41          1           0       -4.123272   -0.959293   -0.993484
     42          6           0       -3.526313   -0.209885   -5.010988
     43          1           0       -3.424802    0.392578   -5.919711
     44          1           0       -4.588165   -0.217354   -4.742575
     45          1           0       -3.232345   -1.236197   -5.258956
     46          7           0        0.910643   -0.226179   -1.331000
     47          1           0        0.686992    0.156241   -0.422095
     48          6           0        2.204666   -0.866777   -1.445288
     49          1           0        2.236840   -1.351859   -2.425644
     50          6           0        2.346087   -1.950948   -0.379255
     51          6           0        3.370556    0.144357   -1.311037
     52          1           0        3.253614    0.688993   -0.366844
     53          1           0        4.309325   -0.417167   -1.237209
     54          8           0        1.649603   -2.039687    0.626896
     55          6           0        3.447608    1.123097   -2.490871
     56          1           0        2.451024    1.534808   -2.695873
     57          1           0        3.750366    0.577946   -3.395179
     58          6           0        4.426437    2.294913   -2.270474
     59          1           0        5.408194    1.929365   -1.949380
     60          1           0        4.591012    2.798189   -3.229869
     61          7           0        3.980103    3.300893   -1.319668
     62          1           0        3.154845    3.816504   -1.598854
     63          7           0        3.450525    4.220626    0.735085
     64          1           0        3.743412    4.247911    1.706436
     65          1           0        3.530083    5.142120    0.314418
     66          7           0        4.888813    2.402021    0.731823
     67          1           0        5.302780    1.684007    0.138378
     68          6           0        4.175835    3.230474    0.054396
     69          8           0        3.357504   -2.779310   -0.633977
     70          1           0        3.440308   -3.415657    0.102117
 ---------------------------------------------------------------------

 SCF Done:  E(RB3LYP) =  -1582.13159412     A.U. after    3 cycles

 Alpha  occ. eigenvalues --  -19.32643 -19.28059 -19.25592 -19.21792 -14.58401
 Alpha  occ. eigenvalues --  -14.50060 -14.49007 -14.46329 -14.42302 -14.40474
 Alpha  occ. eigenvalues --  -14.34974 -10.45467 -10.43072 -10.40015 -10.39218
 Alpha  occ. eigenvalues --  -10.34824 -10.34649 -10.34639 -10.34089 -10.33498
 Alpha  occ. eigenvalues --  -10.32545 -10.30279 -10.30240 -10.29670 -10.29187
 Alpha  occ. eigenvalues --  -10.28937 -10.28870 -10.28298 -10.28223 -10.27832
 Alpha  occ. eigenvalues --  -10.27443 -10.26158 -10.25505 -10.23937  -1.23944
 Alpha  occ. eigenvalues --   -1.18328  -1.14918  -1.13909  -1.12821  -1.08975
 Alpha  occ. eigenvalues --   -1.06162  -1.04310  -1.03014  -0.95662  -0.94628
 Alpha  occ. eigenvalues --   -0.93730  -0.90665  -0.90562  -0.89371  -0.88269
 Alpha  occ. eigenvalues --   -0.84399  -0.83948  -0.83210  -0.81980  -0.80017
 Alpha  occ. eigenvalues --   -0.79306  -0.77329  -0.74054  -0.73532  -0.73099
 Alpha  occ. eigenvalues --   -0.72720  -0.71505  -0.70493  -0.69901  -0.69570
 Alpha  occ. eigenvalues --   -0.68521  -0.67563  -0.65201  -0.65070  -0.64780
 Alpha  occ. eigenvalues --   -0.64325  -0.63776  -0.62748  -0.61604  -0.61391
 Alpha  occ. eigenvalues --   -0.59709  -0.59141  -0.58333  -0.58010  -0.57683
 Alpha  occ. eigenvalues --   -0.57542  -0.56876  -0.56377  -0.55346  -0.54905
 Alpha  occ. eigenvalues --   -0.54124  -0.53903  -0.53357  -0.53189  -0.53013
 Alpha  occ. eigenvalues --   -0.52610  -0.52275  -0.51839  -0.51528  -0.51169
 Alpha  occ. eigenvalues --   -0.50450  -0.49870  -0.49197  -0.49013  -0.48860
 Alpha  occ. eigenvalues --   -0.48597  -0.47706  -0.46052  -0.45838  -0.45702
 Alpha  occ. eigenvalues --   -0.45546  -0.45264  -0.44125  -0.44058  -0.43736
 Alpha  occ. eigenvalues --   -0.43541  -0.43511  -0.42890  -0.42517  -0.41148
 Alpha  occ. eigenvalues --   -0.40698  -0.40143  -0.39421  -0.39024  -0.38173
 Alpha  occ. eigenvalues --   -0.36027  -0.34912  -0.32911  -0.32856  -0.32613
 Alpha  occ. eigenvalues --   -0.31304  -0.29188
 Alpha virt. eigenvalues --   -0.12900  -0.12162  -0.11700  -0.09166  -0.08285
 Alpha virt. eigenvalues --   -0.06948  -0.05235  -0.04796  -0.04394  -0.02905
 Alpha virt. eigenvalues --   -0.02108  -0.01860  -0.01553  -0.01201  -0.00091

 Mulliken charges:
               1
     1  N   -0.756779
     2  H    0.417918
     3  H    0.448277
     4  H    0.411684
     5  C   -0.122570
     6  H    0.221236
     7  C    0.673134
     8  C   -0.386725
     9  H    0.194855
    10  H    0.176625
    11  O   -0.523561
    12  C    0.017941
    13  C    0.018030
    14  H    0.172801
    15  C    0.050489
    16  C    0.317818
    17  C   -0.251167
    18  H    0.138034
    19  N   -0.678457
    20  H    0.351494
    21  C   -0.147710
    22  H    0.157270
    23  C   -0.152533
    24  H    0.154704
    25  C   -0.132166
    26  H    0.145877
    27  N   -0.643629
    28  H    0.351781
    29  C   -0.059104
    30  H    0.173832
    31  C    0.624056
    32  C   -0.066383
    33  H    0.174913
    34  O   -0.484978
    35  C   -0.271129
    36  H    0.126383
    37  H    0.165051
    38  C   -0.462788
    39  H    0.136181
    40  H    0.176892
    41  H    0.130212
    42  C   -0.454516
    43  H    0.159318
    44  H    0.149476
    45  H    0.160422
    46  N   -0.588541
    47  H    0.327904
    48  C   -0.067431
    49  H    0.225221
    50  C    0.619311
    51  C   -0.294921
    52  H    0.171410
    53  H    0.169664
    54  O   -0.528966
    55  C   -0.257647
    56  H    0.147691
    57  H    0.156949
    58  C   -0.160984
    59  H    0.164860
    60  H    0.169236
    61  N   -0.586885
    62  H    0.320542
    63  N   -0.756108
    64  H    0.339842
    65  H    0.323959
    66  N   -0.648932
    67  H    0.271568
    68  C    0.575744
    69  O   -0.522563
    70  H    0.426569
 Sum of Mulliken charges =   1.00000

 Dipole moment (field-independent basis, Debye):
    X=             -2.6853    Y=             -5.9096    Z=              9.8254  Tot=             11.7759
 Quadrupole moment (field-independent basis, Debye-Ang):
   XX=           -168.0238   YY=           -150.7042   ZZ=           -134.0121
   XY=             -1.0446   XZ=            -28.0396   YZ=            -44.3785

 Normal termination of Gaussian 16 at Thu May 26 00:32:44 2022.
