 Gaussian 16, Revision C.01,
 Gaussian 16:  ES64L-G16RevC.01  3-Jul-2019

 -------------------------------------------------------------------
 # B3LYP/6-31G* guess=read geom=check nosymm integral(ultrafinegrid)
 -------------------------------------------------------------------

 ------------------------------------------------------
 Candidate Structure: Conf:304 Charge calc in gas phase
 ------------------------------------------------------
 Structure from the checkpoint file:  "conf-304.chk"
 Charge =  1 Multiplicity = 1

                          Input orientation:
 ---------------------------------------------------------------------
 Center     Atomic      Atomic             Coordinates (Angstroms)
 Number     Number       Type             X           Y           Z
 ---------------------------------------------------------------------
      1          7           0       -0.606544   -3.552103    2.447823
      2          1           0       -1.509269   -4.024999    2.352219
      3          1           0       -0.044568   -3.716975    1.574035
      4          1           0       -0.132059   -3.899968    3.301191
      5          6           0       -0.720085   -2.051958    2.523435
      6          1           0       -1.742979   -1.805337    2.815217
      7          6           0       -0.368029   -1.586392    1.089806
      8          6           0        0.299359   -1.517295    3.575448
      9          1           0        1.301655   -1.529153    3.130949
     10          1           0        0.052068   -0.463268    3.749184
     11          8           0        0.178172   -2.401080    0.341973
     12          6           0        0.274572   -2.300451    4.852939
     13          6           0        1.263308   -3.157924    5.302829
     14          1           0        2.230574   -3.382842    4.871694
     15          6           0       -0.775512   -2.323457    5.846504
     16          6           0       -0.352914   -3.211458    6.870808
     17          6           0       -2.018549   -1.675890    5.976280
     18          1           0       -2.365181   -0.969751    5.224852
     19          7           0        0.889410   -3.700776    6.506417
     20          1           0        1.456912   -4.324840    7.061552
     21          6           0       -2.354381   -2.824029    8.099668
     22          1           0       -2.983621   -3.000916    8.966407
     23          6           0       -1.131412   -3.474512    8.003139
     24          1           0       -0.792864   -4.155303    8.778590
     25          6           0       -2.793467   -1.931763    7.098634
     26          1           0       -3.751335   -1.434264    7.215679
     27          7           0       -0.607206   -0.300773    0.791604
     28          1           0       -1.180767    0.237529    1.428615
     29          6           0       -0.319452    0.295279   -0.537302
     30          1           0       -0.416633    1.376508   -0.374754
     31          6           0        1.164133    0.011268   -0.919653
     32          6           0       -1.306150   -0.126404   -1.653977
     33          1           0       -0.985737   -1.111310   -2.011210
     34          8           0        1.481500   -0.456782   -1.999532
     35          6           0       -1.196476    0.873322   -2.830017
     36          1           0       -1.651135    1.828319   -2.524982
     37          1           0       -0.140073    1.070864   -3.032458
     38          6           0       -2.749050   -0.216929   -1.134932
     39          1           0       -3.087860    0.739523   -0.713434
     40          1           0       -3.431263   -0.470193   -1.950546
     41          1           0       -2.871723   -0.989988   -0.367636
     42          6           0       -1.847558    0.380309   -4.127016
     43          1           0       -1.709514    1.116692   -4.925371
     44          1           0       -2.925117    0.214288   -4.020476
     45          1           0       -1.389907   -0.558178   -4.459714
     46          7           0        2.068986    0.352320    0.042783
     47          1           0        1.764732    0.786082    0.902494
     48          6           0        3.500106    0.135258   -0.141642
     49          1           0        3.611819   -0.702844   -0.834377
     50          6           0        4.158216   -0.266323    1.169365
     51          6           0        4.207148    1.373843   -0.756440
     52          1           0        3.604407    1.650954   -1.628732
     53          1           0        4.151977    2.208402   -0.042492
     54          8           0        5.196742   -0.870868    1.271947
     55          6           0        5.656812    1.125891   -1.190494
     56          1           0        5.679447    0.289772   -1.899999
     57          1           0        6.267207    0.826210   -0.330888
     58          6           0        6.310747    2.362220   -1.841634
     59          1           0        6.299772    3.202895   -1.136963
     60          1           0        7.365801    2.146494   -2.043391
     61          7           0        5.706868    2.824923   -3.080049
     62          1           0        4.813662    3.291997   -2.986664
     63          7           0        5.024351    2.649665   -5.283650
     64          1           0        5.228174    2.193755   -6.167028
     65          1           0        5.093702    3.659179   -5.374366
     66          7           0        6.598690    1.114653   -4.535894
     67          1           0        7.057221    0.751952   -3.700642
     68          6           0        5.847862    2.121994   -4.278453
     69          8           0        3.473717    0.188630    2.265284
     70          1           0        4.036213   -0.022571    3.035133
 ---------------------------------------------------------------------

 SCF Done:  E(RB3LYP) =  -1582.11266131     A.U. after    3 cycles

 Alpha  occ. eigenvalues --  -19.30357 -19.27727 -19.24012 -19.21092 -14.60185
 Alpha  occ. eigenvalues --  -14.51378 -14.50289 -14.45908 -14.40177 -14.38100
 Alpha  occ. eigenvalues --  -14.32772 -10.44616 -10.42096 -10.41575 -10.38783
 Alpha  occ. eigenvalues --  -10.35285 -10.35266 -10.35090 -10.33604 -10.33297
 Alpha  occ. eigenvalues --  -10.32348 -10.31916 -10.30527 -10.30083 -10.29780
 Alpha  occ. eigenvalues --  -10.29165 -10.28987 -10.28455 -10.28392 -10.27640
 Alpha  occ. eigenvalues --  -10.27102 -10.25845 -10.25456 -10.24179  -1.20729
 Alpha  occ. eigenvalues --   -1.20211  -1.14582  -1.13268  -1.11728  -1.10271
 Alpha  occ. eigenvalues --   -1.07434  -1.02351  -1.02044  -0.95834  -0.94678
 Alpha  occ. eigenvalues --   -0.93525  -0.91391  -0.89353  -0.88358  -0.88080
 Alpha  occ. eigenvalues --   -0.84955  -0.84624  -0.83407  -0.81670  -0.80634
 Alpha  occ. eigenvalues --   -0.79626  -0.75643  -0.74904  -0.74253  -0.73795
 Alpha  occ. eigenvalues --   -0.73703  -0.71890  -0.70953  -0.70532  -0.69074
 Alpha  occ. eigenvalues --   -0.68434  -0.67568  -0.66057  -0.65502  -0.65311
 Alpha  occ. eigenvalues --   -0.63690  -0.62848  -0.62246  -0.60325  -0.59547
 Alpha  occ. eigenvalues --   -0.59290  -0.59001  -0.58513  -0.57989  -0.57110
 Alpha  occ. eigenvalues --   -0.56940  -0.56692  -0.56042  -0.55669  -0.54585
 Alpha  occ. eigenvalues --   -0.54499  -0.54268  -0.53802  -0.53308  -0.52924
 Alpha  occ. eigenvalues --   -0.52869  -0.52162  -0.51588  -0.51032  -0.50509
 Alpha  occ. eigenvalues --   -0.50000  -0.49806  -0.49518  -0.49052  -0.47940
 Alpha  occ. eigenvalues --   -0.47336  -0.46531  -0.46411  -0.46362  -0.45670
 Alpha  occ. eigenvalues --   -0.44989  -0.44767  -0.44692  -0.44044  -0.43437
 Alpha  occ. eigenvalues --   -0.42588  -0.42327  -0.41858  -0.41212  -0.41087
 Alpha  occ. eigenvalues --   -0.40651  -0.40254  -0.39634  -0.39397  -0.37869
 Alpha  occ. eigenvalues --   -0.34939  -0.34209  -0.33907  -0.32662  -0.30482
 Alpha  occ. eigenvalues --   -0.30316  -0.27283
 Alpha virt. eigenvalues --   -0.13794  -0.12716  -0.11044  -0.09481  -0.08956
 Alpha virt. eigenvalues --   -0.08810  -0.06838  -0.05883  -0.04643  -0.04062
 Alpha virt. eigenvalues --   -0.02950  -0.02165  -0.01704  -0.01378   0.00094

 Mulliken charges:
               1
     1  N   -0.744775
     2  H    0.417140
     3  H    0.428882
     4  H    0.396448
     5  C   -0.119811
     6  H    0.211017
     7  C    0.662849
     8  C   -0.377769
     9  H    0.192925
    10  H    0.193027
    11  O   -0.514905
    12  C   -0.015790
    13  C   -0.004009
    14  H    0.182116
    15  C    0.101591
    16  C    0.310237
    17  C   -0.216830
    18  H    0.117189
    19  N   -0.673787
    20  H    0.354698
    21  C   -0.146157
    22  H    0.161903
    23  C   -0.152103
    24  H    0.157694
    25  C   -0.131924
    26  H    0.153806
    27  N   -0.620056
    28  H    0.350106
    29  C   -0.072737
    30  H    0.172389
    31  C    0.643491
    32  C   -0.065264
    33  H    0.173964
    34  O   -0.493724
    35  C   -0.271432
    36  H    0.127196
    37  H    0.171128
    38  C   -0.465426
    39  H    0.139340
    40  H    0.181663
    41  H    0.114711
    42  C   -0.455482
    43  H    0.162829
    44  H    0.147172
    45  H    0.163608
    46  N   -0.624999
    47  H    0.337490
    48  C   -0.041675
    49  H    0.219690
    50  C    0.585094
    51  C   -0.276008
    52  H    0.173131
    53  H    0.136716
    54  O   -0.435170
    55  C   -0.273715
    56  H    0.165361
    57  H    0.161466
    58  C   -0.162975
    59  H    0.147894
    60  H    0.170616
    61  N   -0.586377
    62  H    0.317422
    63  N   -0.754819
    64  H    0.339666
    65  H    0.319427
    66  N   -0.638646
    67  H    0.275092
    68  C    0.575497
    69  O   -0.596603
    70  H    0.419287
 Sum of Mulliken charges =   1.00000

 Dipole moment (field-independent basis, Debye):
    X=             -3.4685    Y=             -7.6358    Z=             18.9602  Tot=             20.7323
 Quadrupole moment (field-independent basis, Debye-Ang):
   XX=           -191.0147   YY=           -135.3928   ZZ=           -116.4268
   XY=             19.2673   XZ=             14.3763   YZ=            -69.9376

 Normal termination of Gaussian 16 at Thu May 26 00:32:39 2022.
