 Gaussian 16, Revision C.01,
 Gaussian 16:  ES64L-G16RevC.01  3-Jul-2019

 -------------------------------------------------------------------
 # B3LYP/6-31G* guess=read geom=check nosymm integral(ultrafinegrid)
 -------------------------------------------------------------------

 ------------------------------------------------------
 Candidate Structure: Conf:669 Charge calc in gas phase
 ------------------------------------------------------
 Structure from the checkpoint file:  "conf-669.chk"
 Charge =  1 Multiplicity = 1

                          Input orientation:
 ---------------------------------------------------------------------
 Center     Atomic      Atomic             Coordinates (Angstroms)
 Number     Number       Type             X           Y           Z
 ---------------------------------------------------------------------
      1          7           0       -2.071737   -3.764622    2.584134
      2          1           0       -3.048122   -3.880404    2.867362
      3          1           0       -1.957609   -4.119346    1.600382
      4          1           0       -1.461078   -4.257448    3.260761
      5          6           0       -1.638877   -2.324988    2.488221
      6          1           0       -2.326229   -1.723183    3.086161
      7          6           0       -1.715477   -2.014452    0.972359
      8          6           0       -0.178680   -2.200179    3.019030
      9          1           0        0.501365   -2.599192    2.257672
     10          1           0        0.046485   -1.130471    3.095212
     11          8           0       -1.777556   -2.976195    0.203458
     12          6           0        0.012816   -2.902621    4.329855
     13          6           0        0.737098   -4.062998    4.534158
     14          1           0        1.331707   -4.635499    3.833710
     15          6           0       -0.520522   -2.518960    5.618018
     16          6           0       -0.076157   -3.489496    6.554985
     17          6           0       -1.315274   -1.449000    6.070663
     18          1           0       -1.650769   -0.672498    5.386872
     19          7           0        0.684812   -4.413816    5.861635
     20          1           0        1.171383   -5.196497    6.273698
     21          6           0       -1.198625   -2.363199    8.327054
     22          1           0       -1.473288   -2.281176    9.374214
     23          6           0       -0.408346   -3.427358    7.912701
     24          1           0       -0.059503   -4.177205    8.616762
     25          6           0       -1.645731   -1.382001    7.416991
     26          1           0       -2.253104   -0.559045    7.781432
     27          7           0       -1.707774   -0.707272    0.650405
     28          1           0       -1.559299   -0.078157    1.435191
     29          6           0       -1.196531   -0.126371   -0.618243
     30          1           0       -1.649341    0.871537   -0.671144
     31          6           0        0.323026   -0.000533   -0.362625
     32          6           0       -1.587289   -0.878850   -1.909448
     33          1           0       -1.169852   -1.887766   -1.853770
     34          8           0        1.000856   -0.978714   -0.076641
     35          6           0       -0.995427   -0.164303   -3.154055
     36          1           0       -1.666725   -0.363721   -3.997656
     37          1           0       -1.029292    0.926388   -3.010127
     38          6           0       -3.116966   -0.978229   -2.019932
     39          1           0       -3.575069    0.015670   -2.104634
     40          1           0       -3.388608   -1.544425   -2.916537
     41          1           0       -3.560722   -1.488005   -1.160378
     42          6           0        0.419106   -0.600234   -3.559227
     43          1           0        0.731265   -0.077391   -4.469822
     44          1           0        0.446998   -1.675510   -3.768795
     45          1           0        1.167365   -0.397702   -2.787809
     46          7           0        0.821697    1.273279   -0.379210
     47          1           0        0.152039    2.030357   -0.441205
     48          6           0        2.037319    1.569276    0.361470
     49          1           0        2.773278    0.796398    0.117909
     50          6           0        1.742217    1.431690    1.865555
     51          6           0        2.606621    2.953904    0.001329
     52          1           0        1.842888    3.720826    0.199280
     53          1           0        3.437510    3.163270    0.682521
     54          8           0        0.655239    1.166053    2.344987
     55          6           0        3.088574    3.046444   -1.451935
     56          1           0        2.264156    2.796779   -2.133644
     57          1           0        3.877984    2.305441   -1.629378
     58          6           0        3.629916    4.438886   -1.788096
     59          1           0        2.848195    5.197824   -1.603362
     60          1           0        4.465214    4.676762   -1.118216
     61          7           0        4.127793    4.479378   -3.151938
     62          1           0        3.490256    4.088098   -3.838079
     63          7           0        5.028865    5.550283   -4.994441
     64          1           0        5.580771    6.344233   -5.300652
     65          1           0        5.447883    4.671234   -5.280830
     66          7           0        5.101916    6.684378   -2.968041
     67          1           0        4.722375    6.683103   -2.021512
     68          6           0        4.767530    5.635898   -3.623842
     69          8           0        2.843167    1.632430    2.603569
     70          1           0        2.595661    1.536598    3.543384
 ---------------------------------------------------------------------

 SCF Done:  E(RB3LYP) =  -1582.12242984     A.U. after    3 cycles

 Alpha  occ. eigenvalues --  -19.30768 -19.26429 -19.25600 -19.22500 -14.58876
 Alpha  occ. eigenvalues --  -14.49756 -14.49204 -14.47089 -14.40506 -14.38325
 Alpha  occ. eigenvalues --  -14.33215 -10.43372 -10.43315 -10.39903 -10.39607
 Alpha  occ. eigenvalues --  -10.35004 -10.34536 -10.34028 -10.33065 -10.32617
 Alpha  occ. eigenvalues --  -10.32569 -10.30618 -10.29446 -10.29324 -10.29232
 Alpha  occ. eigenvalues --  -10.29083 -10.28906 -10.28709 -10.28313 -10.28085
 Alpha  occ. eigenvalues --  -10.27524 -10.26886 -10.26056 -10.25005  -1.21859
 Alpha  occ. eigenvalues --   -1.18775  -1.14712  -1.13152  -1.12718  -1.09161
 Alpha  occ. eigenvalues --   -1.06137  -1.03727  -1.02431  -0.94559  -0.94096
 Alpha  occ. eigenvalues --   -0.93462  -0.91323  -0.89446  -0.88586  -0.88389
 Alpha  occ. eigenvalues --   -0.84279  -0.83928  -0.83264  -0.82306  -0.80368
 Alpha  occ. eigenvalues --   -0.79018  -0.75898  -0.73406  -0.72865  -0.72771
 Alpha  occ. eigenvalues --   -0.72446  -0.72279  -0.70037  -0.69847  -0.69511
 Alpha  occ. eigenvalues --   -0.68760  -0.67768  -0.65383  -0.65081  -0.64356
 Alpha  occ. eigenvalues --   -0.63372  -0.62467  -0.62004  -0.61005  -0.60284
 Alpha  occ. eigenvalues --   -0.59435  -0.59132  -0.58963  -0.57692  -0.57370
 Alpha  occ. eigenvalues --   -0.56837  -0.56691  -0.55215  -0.54869  -0.54569
 Alpha  occ. eigenvalues --   -0.53774  -0.53560  -0.53224  -0.53140  -0.52226
 Alpha  occ. eigenvalues --   -0.52081  -0.51807  -0.51615  -0.51162  -0.50767
 Alpha  occ. eigenvalues --   -0.50212  -0.49667  -0.49098  -0.48926  -0.48730
 Alpha  occ. eigenvalues --   -0.48624  -0.47605  -0.47452  -0.45568  -0.45307
 Alpha  occ. eigenvalues --   -0.44905  -0.44204  -0.43925  -0.43883  -0.43739
 Alpha  occ. eigenvalues --   -0.43372  -0.42710  -0.42311  -0.41286  -0.41175
 Alpha  occ. eigenvalues --   -0.41074  -0.40546  -0.39690  -0.39086  -0.38243
 Alpha  occ. eigenvalues --   -0.37182  -0.35272  -0.32929  -0.31610  -0.31074
 Alpha  occ. eigenvalues --   -0.30370  -0.27954
 Alpha virt. eigenvalues --   -0.13083  -0.11818  -0.10547  -0.09593  -0.08515
 Alpha virt. eigenvalues --   -0.07773  -0.05815  -0.04821  -0.03642  -0.02656
 Alpha virt. eigenvalues --   -0.02473  -0.01900  -0.00867  -0.00374   0.00333

 Mulliken charges:
               1
     1  N   -0.744940
     2  H    0.412978
     3  H    0.424661
     4  H    0.393900
     5  C   -0.127440
     6  H    0.208562
     7  C    0.672799
     8  C   -0.394104
     9  H    0.207486
    10  H    0.218626
    11  O   -0.525055
    12  C   -0.012805
    13  C   -0.006411
    14  H    0.182161
    15  C    0.096739
    16  C    0.310127
    17  C   -0.219122
    18  H    0.123912
    19  N   -0.675606
    20  H    0.351342
    21  C   -0.146979
    22  H    0.157484
    23  C   -0.154334
    24  H    0.153524
    25  C   -0.134176
    26  H    0.149682
    27  N   -0.598638
    28  H    0.359121
    29  C   -0.074978
    30  H    0.151538
    31  C    0.644159
    32  C   -0.078048
    33  H    0.183251
    34  O   -0.528508
    35  C   -0.278127
    36  H    0.160242
    37  H    0.125335
    38  C   -0.459043
    39  H    0.146885
    40  H    0.168416
    41  H    0.149039
    42  C   -0.458796
    43  H    0.156070
    44  H    0.159806
    45  H    0.159637
    46  N   -0.583417
    47  H    0.336089
    48  C   -0.056633
    49  H    0.218067
    50  C    0.605444
    51  C   -0.301086
    52  H    0.146312
    53  H    0.188392
    54  O   -0.495460
    55  C   -0.284009
    56  H    0.145202
    57  H    0.166233
    58  C   -0.120428
    59  H    0.138436
    60  H    0.163664
    61  N   -0.607350
    62  H    0.319508
    63  N   -0.752030
    64  H    0.341514
    65  H    0.321062
    66  N   -0.637014
    67  H    0.276432
    68  C    0.578648
    69  O   -0.544735
    70  H    0.426785
 Sum of Mulliken charges =   1.00000

 Dipole moment (field-independent basis, Debye):
    X=             -4.7421    Y=            -11.0991    Z=             13.8386  Tot=             18.3625
 Quadrupole moment (field-independent basis, Debye-Ang):
   XX=           -179.9014   YY=           -157.2559   ZZ=           -108.2038
   XY=              3.0427   XZ=            -10.3065   YZ=            -50.0727

 Normal termination of Gaussian 16 at Thu May 26 00:32:41 2022.
