 Gaussian 16, Revision C.01,
 Gaussian 16:  ES64L-G16RevC.01  3-Jul-2019

 ----------------------------------------------------------------------
 # B3LYP/6-31G* empiricaldispersion=gd3bj guess=read geom=check nosymm
 integral(ultrafinegrid)
 ----------------------------------------------------------------------

 ------------------------------------------------------
 Candidate Structure: Conf:102 Charge calc in gas phase
 ------------------------------------------------------
 Structure from the checkpoint file:  "conf-102.chk"
 Charge =  1 Multiplicity = 1

                          Input orientation:
 ---------------------------------------------------------------------
 Center     Atomic      Atomic             Coordinates (Angstroms)
 Number     Number       Type             X           Y           Z
 ---------------------------------------------------------------------
      1          7           0       -0.780547    4.326173    1.700846
      2          1           0       -0.728579    5.335118    1.570305
      3          1           0        0.211466    3.487286    0.739801
      4          1           0       -0.431129    4.107161    2.634491
      5          6           0       -2.190130    3.879065    1.632887
      6          1           0       -2.786681    4.364018    2.422721
      7          6           0       -2.191891    2.405542    2.045211
      8          6           0       -2.823889    4.219169    0.286770
      9          1           0       -3.894486    3.989742    0.300734
     10          1           0       -2.737948    5.295373    0.102963
     11          1           0       -2.327875    3.706613   -0.539604
     12          8           0       -1.463970    2.035914    2.973978
     13          7           0       -3.044153    1.562099    1.417246
     14          1           0       -3.673217    1.963931    0.733031
     15          6           0       -3.581550    0.384833    2.112672
     16          1           0       -3.501976    0.601106    3.184921
     17          6           0       -2.739860   -0.887623    1.880472
     18          6           0       -5.061373    0.160131    1.727657
     19          1           0       -5.522570   -0.419040    2.535310
     20          1           0       -5.103725   -0.480645    0.842032
     21          8           0       -3.240296   -1.964443    1.571381
     22          6           0       -5.799099    1.442528    1.471817
     23          6           0       -6.501999    1.750300    0.330363
     24          1           0       -6.702842    1.136073   -0.536681
     25          6           0       -5.841334    2.623437    2.305932
     26          6           0       -6.588794    3.608740    1.601483
     27          6           0       -5.287787    2.961204    3.553718
     28          1           0       -4.720521    2.232927    4.125613
     29          7           0       -6.982833    3.043136    0.404042
     30          1           0       -7.568090    3.486671   -0.286696
     31          6           0       -6.228520    5.199951    3.338255
     32          1           0       -6.369042    6.190892    3.758991
     33          6           0       -6.792607    4.896927    2.105162
     34          1           0       -7.367547    5.634583    1.552826
     35          6           0       -5.482722    4.241933    4.055611
     36          1           0       -5.064527    4.508712    5.021584
     37          7           0       -1.413090   -0.698428    2.092470
     38          1           0       -1.100066    0.223812    2.402127
     39          6           0       -0.434578   -1.760215    2.045650
     40          1           0       -0.605720   -2.498573    2.841051
     41          6           0        0.934266   -1.111187    2.202016
     42          6           0       -0.455482   -2.500969    0.675712
     43          1           0       -0.509811   -1.730950   -0.101271
     44          1           0       -1.352153   -3.114563    0.623740
     45          8           0        1.174660    0.021265    1.788262
     46          8           0        0.665723   -3.366029    0.485180
     47          1           0        1.500460   -2.842996    0.512700
     48          7           0        1.906629   -1.900361    2.731840
     49          1           0        1.695521   -2.876054    2.897504
     50          6           0        3.296473   -1.519526    2.537992
     51          1           0        3.495805   -0.610872    3.118550
     52          6           0        3.500835   -1.227362    1.044057
     53          6           0        4.237020   -2.648130    3.014082
     54          1           0        3.960626   -3.547848    2.445343
     55          8           0        3.069177   -2.004298    0.177605
     56          6           0        5.702990   -2.319853    2.705364
     57          1           0        6.008258   -1.385103    3.191970
     58          1           0        6.352292   -3.113709    3.086032
     59          1           0        5.889537   -2.222723    1.631527
     60          6           0        4.046624   -2.918108    4.512485
     61          1           0        4.323234   -2.036017    5.101754
     62          1           0        4.685632   -3.747588    4.830653
     63          1           0        3.013989   -3.175431    4.767123
     64          7           0        4.185948   -0.113943    0.732294
     65          1           0        4.469518    0.497575    1.484818
     66          6           0        4.544103    0.243745   -0.639912
     67          1           0        5.021053    1.228383   -0.571597
     68          6           0        3.316921    0.461333   -1.552605
     69          6           0        5.541252   -0.739445   -1.256065
     70          1           0        5.808097   -0.407666   -2.260574
     71          1           0        5.103900   -1.738593   -1.317215
     72          1           0        6.445039   -0.784791   -0.641854
     73          8           0        3.433887    0.259557   -2.771026
     74          7           0        2.200544    0.953796   -0.989404
     75          1           0        2.118893    1.040137    0.020307
     76          6           0        1.130647    1.562000   -1.782876
     77          1           0        1.591482    1.957100   -2.692896
     78          6           0        0.489249    2.735291   -1.034271
     79          6           0       -0.022644    0.624166   -2.207493
     80          1           0       -0.535207    0.254666   -1.308773
     81          1           0       -0.736187    1.262123   -2.735424
     82          8           0       -0.307436    3.460194   -1.603360
     83          6           0        0.399566   -0.538840   -3.113377
     84          1           0       -0.458357   -0.871546   -3.705909
     85          1           0        1.152856   -0.185271   -3.822923
     86          6           0        0.953519   -1.727332   -2.309104
     87          1           0        0.222144   -2.537380   -2.264920
     88          1           0        1.179952   -1.418196   -1.288405
     89          7           0        2.185421   -2.258346   -2.895198
     90          1           0        2.861825   -1.529485   -3.139655
     91          7           0        1.969959   -4.345849   -1.884515
     92          1           0        2.241472   -5.318199   -1.877468
     93          1           0        1.333300   -4.029885   -1.141920
     94          7           0        3.775764   -3.889575   -3.268393
     95          1           0        4.322772   -4.646513   -2.887209
     96          1           0        4.219714   -3.294074   -3.952356
     97          6           0        2.641774   -3.481727   -2.653952
     98          8           0        0.825964    2.807979    0.241139
 ---------------------------------------------------------------------

 SCF Done:  E(RB3LYP) =  -2360.30691358     A.U. after    1 cycles

 Alpha  occ. eigenvalues --  -19.24998 -19.24183 -19.23867 -19.22311 -19.21609
 Alpha  occ. eigenvalues --  -19.20151 -19.19583 -19.18748 -14.49670 -14.48439
 Alpha  occ. eigenvalues --  -14.48285 -14.48247 -14.46722 -14.45169 -14.44693
 Alpha  occ. eigenvalues --  -14.43952 -14.42713 -14.42500 -10.45229 -10.40669
 Alpha  occ. eigenvalues --  -10.38959 -10.38891 -10.38287 -10.36817 -10.35803
 Alpha  occ. eigenvalues --  -10.34481 -10.34209 -10.32477 -10.32380 -10.32141
 Alpha  occ. eigenvalues --  -10.31644 -10.30884 -10.30872 -10.30298 -10.28861
 Alpha  occ. eigenvalues --  -10.28517 -10.27624 -10.27619 -10.27460 -10.27324
 Alpha  occ. eigenvalues --  -10.26959 -10.26180 -10.25309 -10.25185 -10.25088
 Alpha  occ. eigenvalues --  -10.25052 -10.25027 -10.24781 -10.24467  -1.16256
 Alpha  occ. eigenvalues --   -1.15701  -1.14235  -1.13917  -1.13184  -1.12119
 Alpha  occ. eigenvalues --   -1.11686  -1.10485  -1.06915  -1.04676  -1.04572
 Alpha  occ. eigenvalues --   -1.03466  -1.03139  -1.01964  -1.01451  -1.00884
 Alpha  occ. eigenvalues --   -0.99720  -0.98460  -0.91380  -0.90313  -0.89299
 Alpha  occ. eigenvalues --   -0.87599  -0.87525  -0.85658  -0.84038  -0.83498
 Alpha  occ. eigenvalues --   -0.81404  -0.80869  -0.79951  -0.78576  -0.78472
 Alpha  occ. eigenvalues --   -0.78287  -0.75678  -0.75307  -0.74594  -0.73198
 Alpha  occ. eigenvalues --   -0.72007  -0.71536  -0.70924  -0.69769  -0.69614
 Alpha  occ. eigenvalues --   -0.68730  -0.67922  -0.67461  -0.67132  -0.66428
 Alpha  occ. eigenvalues --   -0.66162  -0.65778  -0.65212  -0.64498  -0.63036
 Alpha  occ. eigenvalues --   -0.62757  -0.62588  -0.62197  -0.61899  -0.61592
 Alpha  occ. eigenvalues --   -0.60550  -0.60051  -0.59297  -0.58638  -0.57837
 Alpha  occ. eigenvalues --   -0.57433  -0.57142  -0.56759  -0.56510  -0.55872
 Alpha  occ. eigenvalues --   -0.55575  -0.55134  -0.54856  -0.54404  -0.54101
 Alpha  occ. eigenvalues --   -0.53749  -0.53408  -0.53333  -0.53043  -0.52793
 Alpha  occ. eigenvalues --   -0.52343  -0.52116  -0.51831  -0.51593  -0.50993
 Alpha  occ. eigenvalues --   -0.50230  -0.50139  -0.50045  -0.49658  -0.49482
 Alpha  occ. eigenvalues --   -0.49295  -0.49158  -0.49011  -0.48373  -0.48156
 Alpha  occ. eigenvalues --   -0.47815  -0.47754  -0.47390  -0.47157  -0.46704
 Alpha  occ. eigenvalues --   -0.46646  -0.46305  -0.45760  -0.45478  -0.45272
 Alpha  occ. eigenvalues --   -0.45089  -0.44954  -0.44540  -0.44238  -0.44133
 Alpha  occ. eigenvalues --   -0.43933  -0.43735  -0.43463  -0.43178  -0.43046
 Alpha  occ. eigenvalues --   -0.42677  -0.42658  -0.41406  -0.40486  -0.39887
 Alpha  occ. eigenvalues --   -0.39490  -0.38923  -0.38815  -0.38260  -0.37926
 Alpha  occ. eigenvalues --   -0.37089  -0.36445  -0.36105  -0.35682  -0.35586
 Alpha  occ. eigenvalues --   -0.35205  -0.34865  -0.33826  -0.33689  -0.32525
 Alpha  occ. eigenvalues --   -0.32373  -0.31440  -0.28838  -0.27074
 Alpha virt. eigenvalues --   -0.10455  -0.09767  -0.08448  -0.08426  -0.07915
 Alpha virt. eigenvalues --   -0.06358  -0.05719  -0.05392  -0.05087  -0.03986
 Alpha virt. eigenvalues --   -0.03352  -0.02111  -0.01434  -0.00435  -0.00018

 Mulliken charges:
               1
     1  N   -0.778722
     2  H    0.336281
     3  H    0.476747
     4  H    0.351228
     5  C   -0.066477
     6  H    0.188874
     7  C    0.632309
     8  C   -0.500035
     9  H    0.168601
    10  H    0.162040
    11  H    0.204416
    12  O   -0.551982
    13  N   -0.602870
    14  H    0.353029
    15  C   -0.081467
    16  H    0.191688
    17  C    0.637474
    18  C   -0.367431
    19  H    0.181092
    20  H    0.174088
    21  O   -0.531151
    22  C    0.014223
    23  C   -0.000499
    24  H    0.164035
    25  C    0.088317
    26  C    0.311503
    27  C   -0.221989
    28  H    0.135044
    29  N   -0.685091
    30  H    0.338248
    31  C   -0.152677
    32  H    0.140097
    33  C   -0.162980
    34  H    0.138425
    35  C   -0.146696
    36  H    0.135697
    37  N   -0.668850
    38  H    0.404368
    39  C    0.000934
    40  H    0.171222
    41  C    0.563917
    42  C   -0.069531
    43  H    0.150449
    44  H    0.212375
    45  O   -0.531068
    46  O   -0.694857
    47  H    0.453589
    48  N   -0.606827
    49  H    0.348275
    50  C   -0.007254
    51  H    0.166379
    52  C    0.652958
    53  C   -0.119671
    54  H    0.145102
    55  O   -0.589875
    56  C   -0.469174
    57  H    0.150798
    58  H    0.173818
    59  H    0.158261
    60  C   -0.450740
    61  H    0.161603
    62  H    0.170472
    63  H    0.155080
    64  N   -0.597144
    65  H    0.356343
    66  C   -0.057591
    67  H    0.192698
    68  C    0.643349
    69  C   -0.456499
    70  H    0.185778
    71  H    0.159291
    72  H    0.161522
    73  O   -0.575077
    74  N   -0.618297
    75  H    0.404055
    76  C   -0.044971
    77  H    0.197247
    78  C    0.595966
    79  C   -0.304724
    80  H    0.161699
    81  H    0.187124
    82  O   -0.488298
    83  C   -0.299299
    84  H    0.164919
    85  H    0.178877
    86  C   -0.168821
    87  H    0.180268
    88  H    0.193431
    89  N   -0.611165
    90  H    0.390187
    91  N   -0.792252
    92  H    0.361848
    93  H    0.422163
    94  N   -0.769258
    95  H    0.368769
    96  H    0.379062
    97  C    0.814476
    98  O   -0.620822
 Sum of Mulliken charges =   1.00000

 Dipole moment (field-independent basis, Debye):
    X=              8.7581    Y=             -4.5743    Z=             -0.6058  Tot=              9.8993
 Quadrupole moment (field-independent basis, Debye-Ang):
   XX=           -175.4673   YY=           -207.4376   ZZ=           -251.2599
   XY=            -70.8855   XZ=              3.6377   YZ=             28.3396

 Normal termination of Gaussian 16 at Mon Jul  4 16:58:53 2022.
