 Gaussian 16, Revision C.01,
 Gaussian 16:  ES64L-G16RevC.01  3-Jul-2019

 ----------------------------------------------------------------------
 # B3LYP/6-31G* empiricaldispersion=gd3bj guess=read geom=check nosymm
 integral(ultrafinegrid)
 ----------------------------------------------------------------------

 ------------------------------------------------------
 Candidate Structure: Conf:197 Charge calc in gas phase
 ------------------------------------------------------
 Structure from the checkpoint file:  "conf-197.chk"
 Charge =  1 Multiplicity = 1

                          Input orientation:
 ---------------------------------------------------------------------
 Center     Atomic      Atomic             Coordinates (Angstroms)
 Number     Number       Type             X           Y           Z
 ---------------------------------------------------------------------
      1          7           0       -1.545832    5.120256    2.299518
      2          1           0       -0.982651    4.925864    3.141631
      3          1           0       -2.040689    6.006369    2.408418
      4          1           0       -0.784977    5.224272    1.483270
      5          6           0       -2.501349    3.969941    2.185592
      6          1           0       -3.272789    4.132762    2.945920
      7          6           0       -1.712361    2.750936    2.699172
      8          6           0       -3.157390    3.892776    0.814978
      9          1           0       -3.924973    3.112829    0.819435
     10          1           0       -3.674269    4.833480    0.596006
     11          1           0       -2.413935    3.700101    0.040206
     12          8           0       -0.776796    2.944198    3.477781
     13          7           0       -2.166055    1.526986    2.356780
     14          1           0       -2.860763    1.405866    1.631905
     15          6           0       -1.791471    0.334925    3.096658
     16          1           0       -0.807501    0.526903    3.531480
     17          6           0       -1.752228   -0.848337    2.124192
     18          6           0       -2.806377    0.025791    4.246473
     19          1           0       -2.390869   -0.782894    4.857549
     20          1           0       -3.726779   -0.362244    3.793440
     21          8           0       -2.401029   -0.824817    1.082230
     22          6           0       -3.105642    1.236340    5.070365
     23          6           0       -2.406012    1.697655    6.158425
     24          1           0       -1.581246    1.245695    6.691456
     25          6           0       -4.084964    2.246070    4.754893
     26          6           0       -3.905871    3.310717    5.682749
     27          6           0       -5.078142    2.365296    3.767433
     28          1           0       -5.249346    1.560308    3.057634
     29          7           0       -2.880864    2.939644    6.528969
     30          1           0       -2.558894    3.469107    7.324296
     31          6           0       -5.628556    4.579180    4.626792
     32          1           0       -6.239603    5.474198    4.559964
     33          6           0       -4.667255    4.482792    5.627759
     34          1           0       -4.518159    5.287714    6.341973
     35          6           0       -5.837992    3.527077    3.709499
     36          1           0       -6.610077    3.628489    2.952726
     37          7           0       -1.033613   -1.914880    2.581764
     38          1           0       -0.365804   -1.693718    3.312282
     39          6           0       -0.573729   -3.053506    1.788035
     40          1           0       -0.577749   -3.934296    2.443966
     41          6           0        0.908184   -2.786456    1.427801
     42          6           0       -1.481439   -3.408006    0.604660
     43          1           0       -1.431007   -2.652218   -0.183337
     44          1           0       -2.517716   -3.468317    0.950370
     45          8           0        1.569634   -2.022507    2.144201
     46          8           0       -1.013899   -4.681330    0.136346
     47          1           0       -1.600666   -4.974923   -0.577199
     48          7           0        1.408550   -3.402046    0.340380
     49          1           0        0.792335   -4.037810   -0.162569
     50          6           0        2.798080   -3.217617   -0.102174
     51          1           0        3.396106   -3.054128    0.802169
     52          6           0        2.812467   -1.918390   -0.940531
     53          6           0        3.325465   -4.444006   -0.856813
     54          1           0        2.778656   -4.508696   -1.806696
     55          8           0        2.966739   -1.896682   -2.166196
     56          6           0        4.815733   -4.261152   -1.174469
     57          1           0        5.402478   -4.174321   -0.251382
     58          1           0        5.193584   -5.127760   -1.725845
     59          1           0        4.990103   -3.371982   -1.784883
     60          6           0        3.100282   -5.730519   -0.050956
     61          1           0        3.610090   -5.677201    0.918741
     62          1           0        3.507101   -6.589028   -0.594511
     63          1           0        2.041137   -5.929144    0.140344
     64          7           0        2.564222   -0.805186   -0.200362
     65          1           0        2.441822   -0.966143    0.800185
     66          6           0        1.808937    0.315842   -0.737107
     67          1           0        1.720674    0.155912   -1.816706
     68          6           0        2.535340    1.642458   -0.510446
     69          6           0        0.409076    0.341809   -0.094967
     70          1           0       -0.183863    1.204401   -0.404576
     71          1           0        0.505376    0.387713    0.994065
     72          1           0       -0.134162   -0.568147   -0.356182
     73          8           0        3.601532    1.719085    0.123353
     74          7           0        1.949185    2.702973   -1.099987
     75          1           0        0.985130    2.559104   -1.407421
     76          6           0        2.037669    4.049145   -0.526306
     77          1           0        2.689744    4.006003    0.350240
     78          6           0        0.592637    4.377614   -0.040424
     79          6           0        2.552732    5.115132   -1.500540
     80          1           0        1.939975    5.093909   -2.412009
     81          1           0        2.363156    6.080874   -1.020394
     82          8           0        0.480113    5.381291    0.723043
     83          6           0        4.044226    5.062631   -1.881241
     84          1           0        4.297852    6.022336   -2.344672
     85          1           0        4.668577    4.993554   -0.980282
     86          6           0        4.474809    3.977735   -2.881628
     87          1           0        5.386228    4.299369   -3.400467
     88          1           0        3.681777    3.847216   -3.629809
     89          7           0        4.735219    2.692832   -2.224500
     90          1           0        4.600559    2.647982   -1.210337
     91          7           0        4.573268    1.432154   -4.177722
     92          1           0        4.747004    0.546532   -4.631336
     93          1           0        4.684200    2.257089   -4.747053
     94          7           0        4.785408    0.373279   -2.125437
     95          1           0        4.324826   -0.467056   -2.485658
     96          1           0        4.666454    0.477525   -1.117618
     97          6           0        4.696452    1.510847   -2.837006
     98          8           0       -0.323301    3.618291   -0.429124
 ---------------------------------------------------------------------

 SCF Done:  E(RB3LYP) =  -2360.29033198     A.U. after    3 cycles

 Alpha  occ. eigenvalues --  -19.25296 -19.21977 -19.21870 -19.21542 -19.21061
 Alpha  occ. eigenvalues --  -19.20629 -19.18046 -19.17629 -14.49558 -14.49402
 Alpha  occ. eigenvalues --  -14.48003 -14.46471 -14.45450 -14.45333 -14.45257
 Alpha  occ. eigenvalues --  -14.44777 -14.44347 -14.44097 -10.44511 -10.38445
 Alpha  occ. eigenvalues --  -10.38332 -10.38180 -10.38121 -10.38016 -10.35520
 Alpha  occ. eigenvalues --  -10.33641 -10.33340 -10.33267 -10.33057 -10.32591
 Alpha  occ. eigenvalues --  -10.32074 -10.32057 -10.30262 -10.29208 -10.29181
 Alpha  occ. eigenvalues --  -10.28759 -10.27759 -10.27352 -10.27230 -10.26420
 Alpha  occ. eigenvalues --  -10.26304 -10.26238 -10.25911 -10.25717 -10.25651
 Alpha  occ. eigenvalues --  -10.25399 -10.25391 -10.24760 -10.24654  -1.14234
 Alpha  occ. eigenvalues --   -1.13905  -1.13244  -1.12946  -1.12812  -1.12454
 Alpha  occ. eigenvalues --   -1.12107  -1.11389  -1.05123  -1.04951  -1.02870
 Alpha  occ. eigenvalues --   -1.02816  -1.02516  -1.01785  -1.01452  -1.01312
 Alpha  occ. eigenvalues --   -1.01243  -1.00642  -0.91185  -0.89474  -0.89189
 Alpha  occ. eigenvalues --   -0.88611  -0.86433  -0.86232  -0.85472  -0.82994
 Alpha  occ. eigenvalues --   -0.82587  -0.80787  -0.79441  -0.79016  -0.77295
 Alpha  occ. eigenvalues --   -0.75798  -0.75542  -0.75140  -0.74960  -0.73888
 Alpha  occ. eigenvalues --   -0.72810  -0.70778  -0.69484  -0.69383  -0.68339
 Alpha  occ. eigenvalues --   -0.67787  -0.67288  -0.66916  -0.66496  -0.66462
 Alpha  occ. eigenvalues --   -0.66313  -0.65597  -0.64556  -0.64203  -0.63617
 Alpha  occ. eigenvalues --   -0.63136  -0.62024  -0.61695  -0.61229  -0.60921
 Alpha  occ. eigenvalues --   -0.60076  -0.59912  -0.59569  -0.58991  -0.58594
 Alpha  occ. eigenvalues --   -0.57556  -0.57229  -0.56768  -0.56726  -0.56079
 Alpha  occ. eigenvalues --   -0.55637  -0.55258  -0.55029  -0.54426  -0.54157
 Alpha  occ. eigenvalues --   -0.54098  -0.53306  -0.52656  -0.52503  -0.52117
 Alpha  occ. eigenvalues --   -0.51977  -0.51790  -0.51208  -0.51151  -0.50803
 Alpha  occ. eigenvalues --   -0.50711  -0.50463  -0.50201  -0.49981  -0.49554
 Alpha  occ. eigenvalues --   -0.49404  -0.48960  -0.48697  -0.48344  -0.48161
 Alpha  occ. eigenvalues --   -0.47749  -0.47719  -0.47406  -0.47280  -0.46857
 Alpha  occ. eigenvalues --   -0.46442  -0.46152  -0.46111  -0.45822  -0.45460
 Alpha  occ. eigenvalues --   -0.45423  -0.45142  -0.44774  -0.44518  -0.44306
 Alpha  occ. eigenvalues --   -0.43702  -0.43528  -0.43249  -0.42412  -0.42274
 Alpha  occ. eigenvalues --   -0.42034  -0.41375  -0.40813  -0.40749  -0.40430
 Alpha  occ. eigenvalues --   -0.39872  -0.37908  -0.37688  -0.37264  -0.36711
 Alpha  occ. eigenvalues --   -0.36342  -0.35759  -0.35630  -0.35066  -0.34620
 Alpha  occ. eigenvalues --   -0.34568  -0.34409  -0.33768  -0.33489  -0.33410
 Alpha  occ. eigenvalues --   -0.32019  -0.31798  -0.29621  -0.27364
 Alpha virt. eigenvalues --   -0.09837  -0.09044  -0.08708  -0.08492  -0.07276
 Alpha virt. eigenvalues --   -0.06780  -0.06685  -0.04731  -0.04233  -0.02997
 Alpha virt. eigenvalues --   -0.02726  -0.02201  -0.01255  -0.00302  -0.00258

 Mulliken charges:
               1
     1  N   -0.776564
     2  H    0.395635
     3  H    0.375674
     4  H    0.452426
     5  C   -0.105765
     6  H    0.224612
     7  C    0.678469
     8  C   -0.496781
     9  H    0.160261
    10  H    0.160011
    11  H    0.237950
    12  O   -0.546857
    13  N   -0.614772
    14  H    0.357020
    15  C   -0.060743
    16  H    0.191381
    17  C    0.631678
    18  C   -0.361613
    19  H    0.160912
    20  H    0.166597
    21  O   -0.540259
    22  C    0.069436
    23  C    0.029271
    24  H    0.162829
    25  C    0.067329
    26  C    0.316143
    27  C   -0.227884
    28  H    0.128091
    29  N   -0.685926
    30  H    0.338683
    31  C   -0.161908
    32  H    0.141134
    33  C   -0.172561
    34  H    0.138986
    35  C   -0.148993
    36  H    0.137406
    37  N   -0.596959
    38  H    0.351210
    39  C   -0.063324
    40  H    0.205664
    41  C    0.630225
    42  C   -0.082200
    43  H    0.177755
    44  H    0.178509
    45  O   -0.564788
    46  O   -0.632720
    47  H    0.420194
    48  N   -0.622044
    49  H    0.380561
    50  C   -0.046045
    51  H    0.186965
    52  C    0.614004
    53  C   -0.099881
    54  H    0.149492
    55  O   -0.554401
    56  C   -0.459539
    57  H    0.148333
    58  H    0.162149
    59  H    0.155440
    60  C   -0.455538
    61  H    0.152686
    62  H    0.162953
    63  H    0.151061
    64  N   -0.594323
    65  H    0.385784
    66  C   -0.098647
    67  H    0.186230
    68  C    0.607401
    69  C   -0.494530
    70  H    0.204818
    71  H    0.169068
    72  H    0.171071
    73  O   -0.567411
    74  N   -0.574750
    75  H    0.358029
    76  C   -0.087246
    77  H    0.183332
    78  C    0.624597
    79  C   -0.264906
    80  H    0.145266
    81  H    0.186564
    82  O   -0.619377
    83  C   -0.314447
    84  H    0.173003
    85  H    0.167906
    86  C   -0.141427
    87  H    0.177670
    88  H    0.165660
    89  N   -0.596049
    90  H    0.394544
    91  N   -0.759941
    92  H    0.379879
    93  H    0.377735
    94  N   -0.784436
    95  H    0.389045
    96  H    0.390480
    97  C    0.763657
    98  O   -0.575321
 Sum of Mulliken charges =   1.00000

 Dipole moment (field-independent basis, Debye):
    X=              4.4646    Y=              6.3078    Z=             -0.8056  Tot=              7.7698
 Quadrupole moment (field-independent basis, Debye-Ang):
   XX=           -218.7504   YY=           -195.7486   ZZ=           -199.5590
   XY=             -2.2136   XZ=            -62.9131   YZ=             13.4650

 Normal termination of Gaussian 16 at Mon Jul  4 16:59:53 2022.
