 Gaussian 16, Revision C.01,
 Gaussian 16:  ES64L-G16RevC.01  3-Jul-2019

 ----------------------------------------------------------------------
 # B3LYP/6-31G* empiricaldispersion=gd3bj guess=read geom=check nosymm
 integral(ultrafinegrid)
 ----------------------------------------------------------------------

 ------------------------------------------------------
 Candidate Structure: Conf:123 Charge calc in gas phase
 ------------------------------------------------------
 Structure from the checkpoint file:  "conf-123.chk"
 Charge =  1 Multiplicity = 1

                          Input orientation:
 ---------------------------------------------------------------------
 Center     Atomic      Atomic             Coordinates (Angstroms)
 Number     Number       Type             X           Y           Z
 ---------------------------------------------------------------------
      1          7           0       -7.605738    4.520338    4.741411
      2          1           0       -7.419326    4.078022    5.664628
      3          1           0       -8.587735    4.803064    4.695736
      4          1           0       -6.971470    5.346398    4.644549
      5          6           0       -7.191546    3.620629    3.602123
      6          1           0       -7.317697    2.591321    3.940515
      7          6           0       -5.702571    3.993125    3.418441
      8          6           0       -8.010729    3.924136    2.351563
      9          1           0       -7.675777    3.281579    1.532689
     10          1           0       -9.076014    3.729400    2.514738
     11          1           0       -7.872274    4.964824    2.041617
     12          8           0       -5.376088    5.157732    3.668603
     13          7           0       -4.898142    3.011536    3.016934
     14          1           0       -5.249093    2.091182    2.758408
     15          6           0       -3.447740    3.108956    2.940008
     16          1           0       -3.179035    4.124024    2.638099
     17          6           0       -3.017492    2.063692    1.902115
     18          6           0       -2.787862    2.773967    4.314688
     19          1           0       -1.708620    2.928815    4.212610
     20          1           0       -2.938287    1.705328    4.508312
     21          8           0       -3.766961    1.095310    1.692539
     22          6           0       -3.344252    3.596650    5.434264
     23          6           0       -2.890997    4.822100    5.857247
     24          1           0       -2.011217    5.372369    5.553891
     25          6           0       -4.563258    3.343645    6.160441
     26          6           0       -4.804087    4.480975    6.990592
     27          6           0       -5.487932    2.286131    6.178223
     28          1           0       -5.316265    1.395494    5.580469
     29          7           0       -3.762433    5.355787    6.784621
     30          1           0       -3.621870    6.225357    7.276712
     31          6           0       -6.851743    3.533358    7.778448
     32          1           0       -7.732323    3.576503    8.412299
     33          6           0       -5.940116    4.589617    7.797727
     34          1           0       -6.106453    5.459273    8.426671
     35          6           0       -6.623152    2.386258    6.980671
     36          1           0       -7.331020    1.563433    7.018871
     37          7           0       -1.821932    2.262948    1.351780
     38          1           0       -1.289992    3.120700    1.518761
     39          6           0       -1.110331    1.368757    0.443728
     40          1           0       -0.894160    0.419402    0.949590
     41          6           0        0.217150    2.105870    0.158376
     42          6           0       -1.905715    1.026256   -0.842250
     43          1           0       -1.208272    0.719792   -1.627673
     44          1           0       -2.403255    1.947856   -1.187769
     45          8           0        0.398976    3.249099    0.589491
     46          8           0       -2.794959   -0.044899   -0.659519
     47          1           0       -3.354653    0.177990    0.109813
     48          7           0        1.113374    1.407752   -0.552128
     49          1           0        0.864105    0.522848   -0.986709
     50          6           0        2.344815    1.975236   -1.089329
     51          1           0        2.249912    3.065252   -1.059726
     52          6           0        2.403531    1.462144   -2.537513
     53          6           0        3.591562    1.550634   -0.266694
     54          1           0        3.685585    0.461244   -0.373775
     55          8           0        1.882558    0.386078   -2.831014
     56          6           0        4.869712    2.202258   -0.811413
     57          1           0        4.773909    3.297779   -0.819196
     58          1           0        5.715883    1.960969   -0.159599
     59          1           0        5.116213    1.848354   -1.815960
     60          6           0        3.395395    1.885724    1.216451
     61          1           0        3.249724    2.962424    1.359289
     62          1           0        4.278929    1.581687    1.787607
     63          1           0        2.527730    1.370430    1.638776
     64          7           0        3.005876    2.267271   -3.443736
     65          1           0        3.585970    3.015776   -3.087912
     66          6           0        3.330678    1.763713   -4.770465
     67          1           0        2.418411    1.321786   -5.181444
     68          6           0        4.421259    0.674674   -4.675709
     69          6           0        3.810552    2.915227   -5.657489
     70          1           0        4.020400    2.552802   -6.667051
     71          1           0        4.736552    3.344297   -5.257017
     72          1           0        3.051535    3.701507   -5.717081
     73          8           0        5.235460    0.659093   -3.750356
     74          7           0        4.435088   -0.184888   -5.706693
     75          1           0        3.725216   -0.189345   -6.435259
     76          6           0        5.432097   -1.229159   -5.888992
     77          1           0        6.424269   -0.821529   -5.676281
     78          6           0        5.332935   -1.657984   -7.373602
     79          6           0        5.133861   -2.392556   -4.902338
     80          1           0        4.938049   -1.911639   -3.940416
     81          1           0        4.195413   -2.869896   -5.214274
     82          8           0        6.390476   -2.166066   -7.890476
     83          6           0        6.239941   -3.451433   -4.691157
     84          1           0        7.221647   -3.036365   -4.952875
     85          1           0        6.295594   -3.703254   -3.625891
     86          6           0        6.046751   -4.778552   -5.439444
     87          1           0        5.052095   -5.184562   -5.218115
     88          1           0        6.792735   -5.508473   -5.100391
     89          7           0        6.180349   -4.562895   -6.879148
     90          1           0        6.596256   -3.644883   -7.150265
     91          7           0        4.559536   -6.093575   -7.579343
     92          1           0        4.046457   -6.496591   -8.349715
     93          1           0        4.837721   -6.743263   -6.858615
     94          7           0        5.324832   -4.387363   -8.997157
     95          1           0        4.602666   -4.617072   -9.664379
     96          1           0        5.669950   -3.401303   -8.959639
     97          6           0        5.352000   -5.016470   -7.816455
     98          8           0        4.226249   -1.538429   -7.925857
 ---------------------------------------------------------------------

 SCF Done:  E(RB3LYP) =  -2360.24696536     A.U. after    3 cycles

 Alpha  occ. eigenvalues --  -19.25360 -19.22517 -19.19533 -19.19016 -19.17385
 Alpha  occ. eigenvalues --  -19.14497 -19.12438 -19.11843 -14.58346 -14.48864
 Alpha  occ. eigenvalues --  -14.48656 -14.45557 -14.44978 -14.42826 -14.41750
 Alpha  occ. eigenvalues --  -14.41685 -14.41367 -14.38222 -10.42547 -10.39694
 Alpha  occ. eigenvalues --  -10.39429 -10.39330 -10.36536 -10.34718 -10.34204
 Alpha  occ. eigenvalues --  -10.33167 -10.32755 -10.32412 -10.31549 -10.31345
 Alpha  occ. eigenvalues --  -10.30522 -10.30238 -10.30178 -10.30146 -10.30134
 Alpha  occ. eigenvalues --  -10.29874 -10.29872 -10.29633 -10.28941 -10.28726
 Alpha  occ. eigenvalues --  -10.28657 -10.27772 -10.24815 -10.24563 -10.23897
 Alpha  occ. eigenvalues --  -10.23298 -10.22256 -10.22113 -10.21304  -1.18023
 Alpha  occ. eigenvalues --   -1.14286  -1.12614  -1.11461  -1.09377  -1.08640
 Alpha  occ. eigenvalues --   -1.08424  -1.07129  -1.06372  -1.05602  -1.05351
 Alpha  occ. eigenvalues --   -1.02171  -0.99647  -0.98144  -0.97874  -0.96638
 Alpha  occ. eigenvalues --   -0.96070  -0.95419  -0.94682  -0.92692  -0.90989
 Alpha  occ. eigenvalues --   -0.87710  -0.86305  -0.84875  -0.84022  -0.83689
 Alpha  occ. eigenvalues --   -0.82544  -0.82030  -0.80420  -0.77884  -0.77354
 Alpha  occ. eigenvalues --   -0.76332  -0.73412  -0.73307  -0.72830  -0.72665
 Alpha  occ. eigenvalues --   -0.72256  -0.71189  -0.70926  -0.70290  -0.69935
 Alpha  occ. eigenvalues --   -0.69029  -0.67668  -0.67313  -0.66071  -0.65566
 Alpha  occ. eigenvalues --   -0.65288  -0.64486  -0.64474  -0.63771  -0.62956
 Alpha  occ. eigenvalues --   -0.62112  -0.61698  -0.61212  -0.60799  -0.60105
 Alpha  occ. eigenvalues --   -0.59009  -0.58789  -0.58278  -0.57879  -0.57493
 Alpha  occ. eigenvalues --   -0.56956  -0.56705  -0.56098  -0.55616  -0.55295
 Alpha  occ. eigenvalues --   -0.54574  -0.54331  -0.54123  -0.53725  -0.53571
 Alpha  occ. eigenvalues --   -0.53197  -0.52993  -0.52633  -0.52501  -0.51786
 Alpha  occ. eigenvalues --   -0.51724  -0.51638  -0.51127  -0.50982  -0.50676
 Alpha  occ. eigenvalues --   -0.50035  -0.49398  -0.49223  -0.48933  -0.48515
 Alpha  occ. eigenvalues --   -0.48307  -0.47996  -0.47888  -0.47666  -0.47363
 Alpha  occ. eigenvalues --   -0.46654  -0.46570  -0.45986  -0.45861  -0.44944
 Alpha  occ. eigenvalues --   -0.44823  -0.44611  -0.44408  -0.44221  -0.43883
 Alpha  occ. eigenvalues --   -0.43690  -0.43327  -0.43316  -0.42564  -0.42435
 Alpha  occ. eigenvalues --   -0.41584  -0.40637  -0.40580  -0.40233  -0.40081
 Alpha  occ. eigenvalues --   -0.39345  -0.38927  -0.38768  -0.38300  -0.38192
 Alpha  occ. eigenvalues --   -0.38075  -0.37847  -0.37128  -0.36561  -0.35435
 Alpha  occ. eigenvalues --   -0.34961  -0.34276  -0.33826  -0.33078  -0.32082
 Alpha  occ. eigenvalues --   -0.31927  -0.31442  -0.30987  -0.30850  -0.29001
 Alpha  occ. eigenvalues --   -0.28370  -0.27789  -0.26474  -0.25990
 Alpha virt. eigenvalues --   -0.12680  -0.11867  -0.09187  -0.08658  -0.07988
 Alpha virt. eigenvalues --   -0.05340  -0.04389  -0.04350  -0.03347  -0.03246
 Alpha virt. eigenvalues --   -0.02543  -0.01509  -0.01075  -0.00788  -0.00735

 Mulliken charges:
               1
     1  N   -0.761728
     2  H    0.421772
     3  H    0.401546
     4  H    0.420778
     5  C   -0.103027
     6  H    0.203962
     7  C    0.668734
     8  C   -0.475929
     9  H    0.212669
    10  H    0.186310
    11  H    0.198421
    12  O   -0.539332
    13  N   -0.605441
    14  H    0.366195
    15  C   -0.059637
    16  H    0.195808
    17  C    0.649749
    18  C   -0.363944
    19  H    0.180396
    20  H    0.175764
    21  O   -0.574036
    22  C    0.079877
    23  C    0.036127
    24  H    0.181625
    25  C    0.062700
    26  C    0.326807
    27  C   -0.225874
    28  H    0.148876
    29  N   -0.682262
    30  H    0.348831
    31  C   -0.206872
    32  H    0.159697
    33  C   -0.171908
    34  H    0.158589
    35  C   -0.192348
    36  H    0.155115
    37  N   -0.631957
    38  H    0.369407
    39  C   -0.068292
    40  H    0.193347
    41  C    0.611604
    42  C   -0.027758
    43  H    0.170071
    44  H    0.131426
    45  O   -0.548639
    46  O   -0.634890
    47  H    0.424395
    48  N   -0.609011
    49  H    0.363370
    50  C   -0.069955
    51  H    0.171650
    52  C    0.636609
    53  C   -0.063404
    54  H    0.144887
    55  O   -0.546167
    56  C   -0.505530
    57  H    0.125466
    58  H    0.153677
    59  H    0.214345
    60  C   -0.443285
    61  H    0.153800
    62  H    0.150004
    63  H    0.137860
    64  N   -0.586197
    65  H    0.338796
    66  C   -0.056697
    67  H    0.175569
    68  C    0.643088
    69  C   -0.473117
    70  H    0.180438
    71  H    0.163528
    72  H    0.163810
    73  O   -0.548141
    74  N   -0.610710
    75  H    0.350005
    76  C   -0.022662
    77  H    0.164112
    78  C    0.583687
    79  C   -0.276248
    80  H    0.179703
    81  H    0.140298
    82  O   -0.647061
    83  C   -0.302504
    84  H    0.170376
    85  H    0.154428
    86  C   -0.149154
    87  H    0.156233
    88  H    0.162171
    89  N   -0.601076
    90  H    0.405503
    91  N   -0.753292
    92  H    0.359280
    93  H    0.365101
    94  N   -0.754752
    95  H    0.344069
    96  H    0.412152
    97  C    0.752867
    98  O   -0.564641
 Sum of Mulliken charges =   1.00000

 Dipole moment (field-independent basis, Debye):
    X=            -23.3757    Y=             10.0376    Z=             15.2571  Tot=             29.6640
 Quadrupole moment (field-independent basis, Debye-Ang):
   XX=            -74.1082   YY=           -119.3217   ZZ=           -131.4438
   XY=           -161.2472   XZ=           -148.5104   YZ=            163.6365

 Normal termination of Gaussian 16 at Mon Jul  4 16:59:15 2022.
