 Gaussian 16, Revision C.01,
 Gaussian 16:  ES64L-G16RevC.01  3-Jul-2019

 ----------------------------------------------------------------------
 # B3LYP/6-31G* empiricaldispersion=gd3bj guess=read geom=check nosymm
 integral(ultrafinegrid)
 ----------------------------------------------------------------------

 ------------------------------------------------------
 Candidate Structure: Conf:549 Charge calc in gas phase
 ------------------------------------------------------
 Structure from the checkpoint file:  "conf-549.chk"
 Charge =  1 Multiplicity = 1

                          Input orientation:
 ---------------------------------------------------------------------
 Center     Atomic      Atomic             Coordinates (Angstroms)
 Number     Number       Type             X           Y           Z
 ---------------------------------------------------------------------
      1          7           0       -6.858527    4.487931    2.610713
      2          1           0       -6.648234    4.894990    3.523030
      3          1           0       -7.763694    4.818077    2.285184
      4          1           0       -6.124008    4.791962    1.965228
      5          6           0       -6.788359    3.012692    2.641947
      6          1           0       -7.157167    2.647043    3.605557
      7          6           0       -5.317722    2.634907    2.501929
      8          6           0       -7.602694    2.395150    1.514604
      9          1           0       -7.538549    1.306105    1.534732
     10          1           0       -8.654354    2.682077    1.597474
     11          1           0       -7.230119    2.739668    0.546293
     12          8           0       -4.527259    3.398107    1.948052
     13          7           0       -4.960918    1.416425    2.957053
     14          1           0       -5.621490    0.899502    3.509691
     15          6           0       -3.555038    1.049582    3.088915
     16          1           0       -3.012289    1.984532    3.233441
     17          6           0       -3.068733    0.402627    1.789530
     18          6           0       -3.342359    0.132067    4.294491
     19          1           0       -2.270377   -0.069965    4.372231
     20          1           0       -3.823878   -0.826975    4.115777
     21          8           0       -2.683643   -0.769992    1.724387
     22          6           0       -3.881702    0.715790    5.566161
     23          6           0       -4.860121    0.168548    6.342183
     24          1           0       -5.393064   -0.761817    6.218076
     25          6           0       -3.527684    1.970950    6.178842
     26          6           0       -4.327196    2.115445    7.326451
     27          6           0       -2.614194    2.981876    5.843186
     28          1           0       -1.998328    2.895708    4.955457
     29          7           0       -5.133638    1.004113    7.403804
     30          1           0       -5.800932    0.821320    8.127320
     31          6           0       -3.321087    4.205641    7.822017
     32          1           0       -3.218803    5.084526    8.447327
     33          6           0       -4.242402    3.229191    8.166869
     34          1           0       -4.868485    3.318816    9.047420
     35          6           0       -2.515238    4.082758    6.674224
     36          1           0       -1.811787    4.871754    6.436122
     37          7           0       -3.103286    1.190768    0.697849
     38          1           0       -3.357991    2.168619    0.780800
     39          6           0       -2.690567    0.688795   -0.598445
     40          1           0       -3.005975   -0.356552   -0.651216
     41          6           0       -1.169707    0.760548   -0.734070
     42          6           0       -3.372957    1.495196   -1.685392
     43          1           0       -4.455545    1.390537   -1.575181
     44          1           0       -3.076413    1.111782   -2.668000
     45          8           0       -0.612268    1.582184   -1.464671
     46          8           0       -3.075519    2.870920   -1.562758
     47          1           0       -2.124754    2.932171   -1.723685
     48          7           0       -0.473766   -0.118133    0.008834
     49          1           0       -0.971964   -0.748965    0.624621
     50          6           0        0.980495   -0.087291    0.017795
     51          1           0        1.265807    0.966706   -0.049679
     52          6           0        1.481991   -0.812179   -1.236352
     53          6           0        1.586823   -0.683146    1.291963
     54          1           0        1.428463   -1.763674    1.248175
     55          8           0        1.744157   -2.015851   -1.255211
     56          6           0        3.088125   -0.391038    1.324412
     57          1           0        3.249345    0.686453    1.388040
     58          1           0        3.553218   -0.855751    2.198852
     59          1           0        3.598119   -0.753614    0.428447
     60          6           0        0.934051   -0.125064    2.553135
     61          1           0        1.035905    0.962597    2.582004
     62          1           0        1.420121   -0.533020    3.440714
     63          1           0       -0.128664   -0.374880    2.612398
     64          7           0        1.601100   -0.024894   -2.328569
     65          1           0        1.141703    0.876997   -2.300488
     66          6           0        1.913129   -0.592645   -3.631655
     67          1           0        1.385595   -1.550069   -3.710583
     68          6           0        3.424940   -0.857223   -3.710692
     69          6           0        1.471096    0.358348   -4.729997
     70          1           0        1.695864   -0.064298   -5.711567
     71          1           0        1.998477    1.309697   -4.636814
     72          1           0        0.394771    0.531147   -4.658687
     73          8           0        4.218209   -0.045414   -4.162237
     74          7           0        3.804612   -2.066498   -3.221503
     75          1           0        3.121331   -2.625438   -2.732819
     76          6           0        5.166207   -2.514095   -3.235412
     77          1           0        5.816672   -1.641061   -3.279897
     78          6           0        5.427037   -3.385120   -4.621729
     79          6           0        5.492640   -3.435508   -2.076470
     80          1           0        4.904330   -4.351894   -2.184266
     81          1           0        6.545179   -3.727810   -2.170897
     82          8           0        6.092906   -2.750606   -5.449660
     83          6           0        5.266049   -2.834449   -0.699385
     84          1           0        5.779124   -1.871371   -0.622943
     85          1           0        4.204004   -2.647011   -0.539429
     86          6           0        5.789156   -3.750304    0.392676
     87          1           0        6.875587   -3.831755    0.297602
     88          1           0        5.374525   -4.757509    0.268465
     89          7           0        5.443351   -3.204132    1.721135
     90          1           0        4.512465   -2.809516    1.772931
     91          7           0        6.854351   -4.693449    2.843900
     92          1           0        6.957599   -5.283018    3.655347
     93          1           0        7.037276   -5.148153    1.962299
     94          7           0        5.325680   -3.373007    4.040387
     95          1           0        5.911711   -3.508309    4.852778
     96          1           0        4.888224   -2.459217    4.016496
     97          6           0        5.872217   -3.770601    2.859801
     98          8           0        4.906508   -4.504181   -4.624285
 ---------------------------------------------------------------------

 SCF Done:  E(RB3LYP) =  -2360.09725768     A.U. after    3 cycles

 Alpha  occ. eigenvalues --  -19.27430 -19.22200 -19.21468 -19.20906 -19.17159
 Alpha  occ. eigenvalues --  -19.10412 -19.02981 -19.02885 -14.63569 -14.52100
 Alpha  occ. eigenvalues --  -14.51981 -14.51033 -14.50587 -14.47539 -14.45843
 Alpha  occ. eigenvalues --  -14.44233 -14.40300 -14.34862 -10.47797 -10.43939
 Alpha  occ. eigenvalues --  -10.42694 -10.39168 -10.37434 -10.35211 -10.35120
 Alpha  occ. eigenvalues --  -10.33848 -10.32512 -10.31916 -10.31778 -10.31449
 Alpha  occ. eigenvalues --  -10.31264 -10.30259 -10.29965 -10.28186 -10.28103
 Alpha  occ. eigenvalues --  -10.27944 -10.27753 -10.27683 -10.27592 -10.27526
 Alpha  occ. eigenvalues --  -10.27134 -10.26356 -10.26000 -10.25296 -10.24352
 Alpha  occ. eigenvalues --  -10.21205 -10.20451 -10.20128 -10.19144  -1.21017
 Alpha  occ. eigenvalues --   -1.17744  -1.16508  -1.14358  -1.13022  -1.09531
 Alpha  occ. eigenvalues --   -1.08967  -1.08016  -1.07343  -1.05381  -1.05332
 Alpha  occ. eigenvalues --   -1.02758  -1.02517  -1.00981  -0.96947  -0.96631
 Alpha  occ. eigenvalues --   -0.95886  -0.93507  -0.91428  -0.91308  -0.89438
 Alpha  occ. eigenvalues --   -0.88455  -0.87592  -0.87181  -0.85029  -0.83490
 Alpha  occ. eigenvalues --   -0.83025  -0.81741  -0.81248  -0.79525  -0.77972
 Alpha  occ. eigenvalues --   -0.77604  -0.77377  -0.77194  -0.76673  -0.76518
 Alpha  occ. eigenvalues --   -0.74435  -0.73765  -0.72431  -0.71860  -0.71160
 Alpha  occ. eigenvalues --   -0.70024  -0.69016  -0.68848  -0.68277  -0.68203
 Alpha  occ. eigenvalues --   -0.66739  -0.65966  -0.65834  -0.64647  -0.64294
 Alpha  occ. eigenvalues --   -0.64255  -0.63834  -0.63525  -0.63036  -0.61655
 Alpha  occ. eigenvalues --   -0.61348  -0.60140  -0.59425  -0.59215  -0.58989
 Alpha  occ. eigenvalues --   -0.58612  -0.58085  -0.57770  -0.57432  -0.57001
 Alpha  occ. eigenvalues --   -0.56701  -0.56355  -0.55774  -0.54982  -0.54317
 Alpha  occ. eigenvalues --   -0.53592  -0.53561  -0.53461  -0.53307  -0.52904
 Alpha  occ. eigenvalues --   -0.52531  -0.52461  -0.51949  -0.51492  -0.51130
 Alpha  occ. eigenvalues --   -0.50994  -0.50457  -0.50212  -0.50000  -0.49259
 Alpha  occ. eigenvalues --   -0.48562  -0.48288  -0.48166  -0.47719  -0.47640
 Alpha  occ. eigenvalues --   -0.47237  -0.47138  -0.46730  -0.45814  -0.45462
 Alpha  occ. eigenvalues --   -0.44531  -0.44083  -0.43926  -0.43347  -0.42970
 Alpha  occ. eigenvalues --   -0.42884  -0.42855  -0.42334  -0.42119  -0.42077
 Alpha  occ. eigenvalues --   -0.41667  -0.41187  -0.41108  -0.40977  -0.40551
 Alpha  occ. eigenvalues --   -0.40096  -0.39811  -0.38433  -0.38073  -0.37725
 Alpha  occ. eigenvalues --   -0.37381  -0.37051  -0.36538  -0.35693  -0.35149
 Alpha  occ. eigenvalues --   -0.35033  -0.34395  -0.33222  -0.32778  -0.32140
 Alpha  occ. eigenvalues --   -0.31875  -0.30922  -0.30434  -0.30208  -0.25482
 Alpha  occ. eigenvalues --   -0.24195  -0.18613  -0.17376  -0.15255
 Alpha virt. eigenvalues --   -0.14523  -0.13610  -0.13036  -0.10615  -0.09489
 Alpha virt. eigenvalues --   -0.08762  -0.08271  -0.07011  -0.06711  -0.06075
 Alpha virt. eigenvalues --   -0.04747  -0.04349  -0.03713  -0.03370  -0.02643

 Mulliken charges:
               1
     1  N   -0.699245
     2  H    0.415842
     3  H    0.407871
     4  H    0.427972
     5  C   -0.142922
     6  H    0.213910
     7  C    0.632922
     8  C   -0.473798
     9  H    0.217712
    10  H    0.189327
    11  H    0.206151
    12  O   -0.535531
    13  N   -0.583771
    14  H    0.337828
    15  C   -0.079207
    16  H    0.200824
    17  C    0.654107
    18  C   -0.384612
    19  H    0.189990
    20  H    0.175461
    21  O   -0.551213
    22  C    0.051403
    23  C   -0.023073
    24  H    0.162761
    25  C    0.077978
    26  C    0.306819
    27  C   -0.218010
    28  H    0.131169
    29  N   -0.687465
    30  H    0.338290
    31  C   -0.154068
    32  H    0.145782
    33  C   -0.163768
    34  H    0.142075
    35  C   -0.146310
    36  H    0.139654
    37  N   -0.616339
    38  H    0.381299
    39  C   -0.081440
    40  H    0.191650
    41  C    0.641125
    42  C   -0.051313
    43  H    0.137817
    44  H    0.165311
    45  O   -0.556416
    46  O   -0.639486
    47  H    0.425229
    48  N   -0.620211
    49  H    0.380628
    50  C   -0.032079
    51  H    0.168035
    52  C    0.617911
    53  C   -0.109763
    54  H    0.153722
    55  O   -0.551633
    56  C   -0.472472
    57  H    0.165818
    58  H    0.090737
    59  H    0.199377
    60  C   -0.463120
    61  H    0.147020
    62  H    0.134855
    63  H    0.154002
    64  N   -0.594183
    65  H    0.367970
    66  C   -0.052499
    67  H    0.164430
    68  C    0.613783
    69  C   -0.474088
    70  H    0.188535
    71  H    0.175549
    72  H    0.128413
    73  O   -0.517153
    74  N   -0.595689
    75  H    0.345122
    76  C   -0.032581
    77  H    0.151417
    78  C    0.564865
    79  C   -0.304216
    80  H    0.162491
    81  H    0.143725
    82  O   -0.549100
    83  C   -0.313518
    84  H    0.160449
    85  H    0.166799
    86  C   -0.182675
    87  H    0.187066
    88  H    0.185520
    89  N   -0.578625
    90  H    0.376687
    91  N   -0.725885
    92  H    0.380327
    93  H    0.398765
    94  N   -0.733501
    95  H    0.372642
    96  H    0.378663
    97  C    0.743833
    98  O   -0.586457
 Sum of Mulliken charges =   1.00000

 Dipole moment (field-independent basis, Debye):
    X=            -28.7668    Y=             10.5714    Z=             44.9322  Tot=             54.3892
 Quadrupole moment (field-independent basis, Debye-Ang):
   XX=            -25.1773   YY=           -205.4614   ZZ=           -259.2410
   XY=           -142.6268   XZ=             63.4589   YZ=            -48.8882

 Normal termination of Gaussian 16 at Mon Jul  4 16:59:12 2022.
