 Gaussian 16, Revision C.01,
 Gaussian 16:  ES64L-G16RevC.01  3-Jul-2019

 ----------------------------------------------------------------------
 # B3LYP/6-31G* empiricaldispersion=gd3bj guess=read geom=check nosymm
 integral(ultrafinegrid)
 ----------------------------------------------------------------------

 ------------------------------------------------------
 Candidate Structure: Conf:370 Charge calc in gas phase
 ------------------------------------------------------
 Structure from the checkpoint file:  "conf-370.chk"
 Charge =  1 Multiplicity = 1

                          Input orientation:
 ---------------------------------------------------------------------
 Center     Atomic      Atomic             Coordinates (Angstroms)
 Number     Number       Type             X           Y           Z
 ---------------------------------------------------------------------
      1          7           0       -7.677687    1.799410    5.059149
      2          1           0       -7.881432    1.116110    5.792721
      3          1           0       -8.537024    2.311332    4.841320
      4          1           0       -6.908429    2.473895    5.389091
      5          6           0       -7.021029    1.196785    3.832753
      6          1           0       -6.954020    0.117298    3.987185
      7          6           0       -5.605862    1.839364    3.868687
      8          6           0       -7.804724    1.527150    2.565688
      9          1           0       -7.295790    1.105599    1.695033
     10          1           0       -8.811677    1.099778    2.599236
     11          1           0       -7.871833    2.610240    2.417294
     12          8           0       -5.385928    2.686065    4.752653
     13          7           0       -4.754299    1.444478    2.940606
     14          1           0       -4.985674    0.759171    2.217616
     15          6           0       -3.399699    1.963521    2.781519
     16          1           0       -3.416543    3.048761    2.909272
     17          6           0       -3.015303    1.592393    1.340371
     18          6           0       -2.423093    1.337157    3.828295
     19          1           0       -2.537552    0.248606    3.790157
     20          1           0       -2.759733    1.674221    4.815571
     21          8           0       -3.631164    0.678146    0.764105
     22          6           0       -1.008177    1.720215    3.540339
     23          6           0       -0.052730    0.907787    2.978783
     24          1           0       -0.089202   -0.152002    2.774586
     25          6           0       -0.480639    3.064104    3.495497
     26          6           0        0.803762    2.982456    2.881820
     27          6           0       -0.984270    4.327020    3.858726
     28          1           0       -1.951101    4.418633    4.348022
     29          7           0        1.050625    1.649066    2.618833
     30          1           0        1.736630    1.313672    1.955934
     31          6           0        1.046623    5.351735    2.983243
     32          1           0        1.621339    6.253034    2.793578
     33          6           0        1.576882    4.118159    2.622409
     34          1           0        2.554278    4.038195    2.156182
     35          6           0       -0.218229    5.456186    3.597380
     36          1           0       -0.594243    6.436393    3.873931
     37          7           0       -2.001922    2.278961    0.812333
     38          1           0       -1.554709    2.993963    1.376570
     39          6           0       -1.354811    1.940329   -0.455804
     40          1           0       -2.143694    1.754241   -1.191123
     41          6           0       -0.478497    0.677778   -0.289859
     42          6           0       -0.493881    3.115794   -0.899300
     43          1           0       -0.059496    2.877245   -1.879226
     44          1           0        0.335322    3.237320   -0.190103
     45          8           0        0.746997    0.754304   -0.170995
     46          8           0       -1.334844    4.258782   -0.937347
     47          1           0       -0.782766    5.025571   -1.151608
     48          7           0       -1.161866   -0.483819   -0.258997
     49          1           0       -2.172120   -0.452991   -0.342163
     50          6           0       -0.493609   -1.781544   -0.128017
     51          1           0        0.394071   -1.615995    0.492190
     52          6           0       -0.054549   -2.213543   -1.547670
     53          6           0       -1.407129   -2.824487    0.529188
     54          1           0       -2.239397   -3.000991   -0.163889
     55          8           0       -0.751150   -2.951369   -2.242289
     56          6           0       -0.650407   -4.147638    0.702073
     57          1           0        0.227257   -4.015378    1.347989
     58          1           0       -1.296760   -4.898004    1.169442
     59          1           0       -0.320247   -4.539733   -0.262174
     60          6           0       -1.961110   -2.338694    1.874820
     61          1           0       -1.147521   -2.166300    2.591940
     62          1           0       -2.616834   -3.102349    2.307759
     63          1           0       -2.537027   -1.413431    1.777402
     64          7           0        1.112923   -1.670582   -1.947950
     65          1           0        1.608560   -0.991940   -1.373162
     66          6           0        1.631492   -1.834054   -3.292815
     67          1           0        1.594432   -2.897932   -3.553099
     68          6           0        3.088231   -1.345960   -3.259218
     69          6           0        0.813275   -1.038143   -4.324048
     70          1           0        1.207415   -1.184268   -5.334534
     71          1           0        0.854301    0.030596   -4.087739
     72          1           0       -0.225664   -1.375473   -4.298518
     73          8           0        3.498978   -0.635865   -2.337920
     74          7           0        3.834294   -1.711804   -4.316803
     75          1           0        3.481223   -2.325633   -5.044032
     76          6           0        5.201607   -1.266936   -4.539626
     77          1           0        5.285581   -0.212432   -4.268917
     78          6           0        5.534698   -1.437108   -6.032198
     79          6           0        6.181619   -2.099111   -3.668961
     80          1           0        6.008458   -1.808664   -2.628809
     81          1           0        5.874063   -3.150966   -3.746883
     82          8           0        6.367985   -0.663285   -6.532457
     83          6           0        7.678367   -1.956444   -4.030004
     84          1           0        7.831411   -1.062122   -4.642359
     85          1           0        8.273801   -1.838235   -3.116876
     86          6           0        8.245691   -3.182738   -4.765357
     87          1           0        8.097262   -4.082754   -4.159775
     88          1           0        9.328417   -3.093756   -4.900398
     89          7           0        7.619591   -3.454835   -6.064107
     90          1           0        6.615987   -3.644763   -6.024869
     91          7           0        9.210111   -2.407800   -7.432969
     92          1           0        9.331270   -1.727273   -8.169099
     93          1           0        9.821144   -2.284788   -6.640294
     94          7           0        7.073909   -2.925034   -8.230580
     95          1           0        7.301134   -2.376323   -9.049622
     96          1           0        6.091988   -2.792789   -7.876249
     97          6           0        7.962225   -2.885829   -7.228239
     98          8           0        4.999547   -2.468472   -6.585623
 ---------------------------------------------------------------------

 SCF Done:  E(RB3LYP) =  -2360.23309831     A.U. after    3 cycles

 Alpha  occ. eigenvalues --  -19.27742 -19.22613 -19.21953 -19.19244 -19.15617
 Alpha  occ. eigenvalues --  -19.15071 -19.13176 -19.11938 -14.60621 -14.50132
 Alpha  occ. eigenvalues --  -14.45952 -14.44610 -14.44583 -14.43250 -14.43166
 Alpha  occ. eigenvalues --  -14.40884 -14.39504 -14.38946 -10.44305 -10.41992
 Alpha  occ. eigenvalues --  -10.39495 -10.39243 -10.36334 -10.34723 -10.34505
 Alpha  occ. eigenvalues --  -10.32849 -10.32157 -10.31645 -10.30834 -10.30193
 Alpha  occ. eigenvalues --  -10.29387 -10.29227 -10.29219 -10.29130 -10.28928
 Alpha  occ. eigenvalues --  -10.27255 -10.26069 -10.25959 -10.25923 -10.25921
 Alpha  occ. eigenvalues --  -10.25443 -10.25327 -10.25226 -10.25126 -10.24251
 Alpha  occ. eigenvalues --  -10.23692 -10.22864 -10.22579 -10.22147  -1.20183
 Alpha  occ. eigenvalues --   -1.14702  -1.14155  -1.11118  -1.09391  -1.08537
 Alpha  occ. eigenvalues --   -1.07723  -1.06893  -1.06806  -1.05599  -1.04981
 Alpha  occ. eigenvalues --   -1.02527  -0.99667  -0.98229  -0.97181  -0.96290
 Alpha  occ. eigenvalues --   -0.95995  -0.95169  -0.94259  -0.91173  -0.89931
 Alpha  occ. eigenvalues --   -0.87023  -0.85610  -0.84346  -0.84090  -0.82003
 Alpha  occ. eigenvalues --   -0.81611  -0.80617  -0.79644  -0.78291  -0.76841
 Alpha  occ. eigenvalues --   -0.76602  -0.74935  -0.74455  -0.73444  -0.72499
 Alpha  occ. eigenvalues --   -0.72446  -0.71021  -0.70274  -0.69639  -0.69301
 Alpha  occ. eigenvalues --   -0.68764  -0.66853  -0.66341  -0.65832  -0.65165
 Alpha  occ. eigenvalues --   -0.64832  -0.64404  -0.63701  -0.63488  -0.62541
 Alpha  occ. eigenvalues --   -0.61363  -0.61127  -0.61071  -0.60764  -0.60246
 Alpha  occ. eigenvalues --   -0.59785  -0.59146  -0.58191  -0.57276  -0.56843
 Alpha  occ. eigenvalues --   -0.56607  -0.56208  -0.55693  -0.55541  -0.54985
 Alpha  occ. eigenvalues --   -0.54684  -0.54584  -0.54335  -0.54151  -0.53112
 Alpha  occ. eigenvalues --   -0.52645  -0.52370  -0.52255  -0.51493  -0.51376
 Alpha  occ. eigenvalues --   -0.50690  -0.50611  -0.50404  -0.50173  -0.49746
 Alpha  occ. eigenvalues --   -0.49441  -0.49241  -0.48843  -0.48746  -0.48384
 Alpha  occ. eigenvalues --   -0.48237  -0.47807  -0.47666  -0.47402  -0.47173
 Alpha  occ. eigenvalues --   -0.46439  -0.46313  -0.45685  -0.45451  -0.45243
 Alpha  occ. eigenvalues --   -0.44965  -0.44366  -0.43987  -0.43825  -0.43189
 Alpha  occ. eigenvalues --   -0.42604  -0.42395  -0.42363  -0.41822  -0.41286
 Alpha  occ. eigenvalues --   -0.41039  -0.40949  -0.40859  -0.40287  -0.40213
 Alpha  occ. eigenvalues --   -0.39914  -0.39857  -0.39496  -0.39181  -0.38998
 Alpha  occ. eigenvalues --   -0.38788  -0.37517  -0.37045  -0.36788  -0.35163
 Alpha  occ. eigenvalues --   -0.34812  -0.34386  -0.33711  -0.32375  -0.32218
 Alpha  occ. eigenvalues --   -0.30019  -0.29559  -0.29489  -0.28882  -0.28756
 Alpha  occ. eigenvalues --   -0.28458  -0.27640  -0.27615  -0.25421
 Alpha virt. eigenvalues --   -0.13020  -0.11801  -0.08957  -0.08105  -0.06951
 Alpha virt. eigenvalues --   -0.05856  -0.05302  -0.05005  -0.04779  -0.02273
 Alpha virt. eigenvalues --   -0.02099  -0.01900  -0.01468  -0.00880  -0.00719

 Mulliken charges:
               1
     1  N   -0.759250
     2  H    0.418200
     3  H    0.415450
     4  H    0.438715
     5  C   -0.105865
     6  H    0.227277
     7  C    0.655481
     8  C   -0.483778
     9  H    0.221070
    10  H    0.197679
    11  H    0.197400
    12  O   -0.543992
    13  N   -0.606959
    14  H    0.375353
    15  C   -0.064830
    16  H    0.199556
    17  C    0.643470
    18  C   -0.352690
    19  H    0.165105
    20  H    0.177829
    21  O   -0.578960
    22  C    0.040225
    23  C    0.009620
    24  H    0.170821
    25  C    0.025861
    26  C    0.305497
    27  C   -0.223902
    28  H    0.130147
    29  N   -0.657699
    30  H    0.363217
    31  C   -0.152936
    32  H    0.143572
    33  C   -0.167272
    34  H    0.150496
    35  C   -0.134755
    36  H    0.137129
    37  N   -0.580676
    38  H    0.377204
    39  C   -0.072495
    40  H    0.192232
    41  C    0.649242
    42  C   -0.065500
    43  H    0.163463
    44  H    0.160779
    45  O   -0.559355
    46  O   -0.625091
    47  H    0.409597
    48  N   -0.617670
    49  H    0.367454
    50  C   -0.037570
    51  H    0.155546
    52  C    0.629985
    53  C   -0.096078
    54  H    0.156352
    55  O   -0.543180
    56  C   -0.461017
    57  H    0.137625
    58  H    0.147290
    59  H    0.185437
    60  C   -0.476021
    61  H    0.142474
    62  H    0.147164
    63  H    0.143366
    64  N   -0.621655
    65  H    0.375451
    66  C   -0.036173
    67  H    0.170447
    68  C    0.616827
    69  C   -0.451238
    70  H    0.158417
    71  H    0.148273
    72  H    0.181593
    73  O   -0.552135
    74  N   -0.620015
    75  H    0.348374
    76  C   -0.005021
    77  H    0.169161
    78  C    0.577079
    79  C   -0.292893
    80  H    0.175813
    81  H    0.131996
    82  O   -0.580503
    83  C   -0.274155
    84  H    0.185458
    85  H    0.145640
    86  C   -0.179131
    87  H    0.178400
    88  H    0.145974
    89  N   -0.571070
    90  H    0.371764
    91  N   -0.751744
    92  H    0.365290
    93  H    0.364418
    94  N   -0.733562
    95  H    0.336577
    96  H    0.401537
    97  C    0.761235
    98  O   -0.647267
 Sum of Mulliken charges =   1.00000

 Dipole moment (field-independent basis, Debye):
    X=            -17.3234    Y=              5.4739    Z=             12.2634  Tot=             21.9193
 Quadrupole moment (field-independent basis, Debye-Ang):
   XX=             59.9572   YY=           -256.2611   ZZ=           -166.1908
   XY=            -71.7421   XZ=           -207.1785   YZ=             31.9043

 Normal termination of Gaussian 16 at Mon Jul  4 16:59:14 2022.
