 Gaussian 16, Revision C.01,
 Gaussian 16:  ES64L-G16RevC.01  3-Jul-2019

 ----------------------------------------------------------------------
 # B3LYP/6-31G* empiricaldispersion=gd3bj guess=read geom=check nosymm
 integral(ultrafinegrid)
 ----------------------------------------------------------------------

 ------------------------------------------------------
 Candidate Structure: Conf:448 Charge calc in gas phase
 ------------------------------------------------------
 Structure from the checkpoint file:  "conf-448.chk"
 Charge =  1 Multiplicity = 1

                          Input orientation:
 ---------------------------------------------------------------------
 Center     Atomic      Atomic             Coordinates (Angstroms)
 Number     Number       Type             X           Y           Z
 ---------------------------------------------------------------------
      1          7           0       -4.936769    5.995648    3.921868
      2          1           0       -4.608095    6.639241    4.646021
      3          1           0       -5.917910    6.205569    3.718745
      4          1           0       -4.335212    6.102796    3.039076
      5          6           0       -4.700024    4.535446    4.254974
      6          1           0       -4.287371    4.484534    5.264965
      7          6           0       -3.630871    4.124309    3.204652
      8          6           0       -5.990096    3.727426    4.140595
      9          1           0       -5.787484    2.673112    4.346796
     10          1           0       -6.737635    4.068954    4.863264
     11          1           0       -6.403807    3.792136    3.128443
     12          8           0       -3.326292    4.967862    2.341696
     13          7           0       -3.143833    2.902403    3.311700
     14          1           0       -3.538277    2.201402    3.948351
     15          6           0       -2.269060    2.276734    2.322656
     16          1           0       -2.665627    2.492012    1.324976
     17          6           0       -2.442895    0.762325    2.590879
     18          6           0       -0.812488    2.816613    2.388504
     19          1           0       -0.323977    2.443452    3.295091
     20          1           0       -0.885827    3.906666    2.479116
     21          8           0       -3.245163    0.384150    3.453295
     22          6           0       -0.038073    2.438714    1.162311
     23          6           0        1.041389    1.594352    1.082899
     24          1           0        1.562321    1.071354    1.870428
     25          6           0       -0.394148    2.786907   -0.198734
     26          6           0        0.490582    2.073519   -1.048801
     27          6           0       -1.374774    3.616771   -0.769560
     28          1           0       -2.037632    4.204722   -0.139502
     29          7           0        1.407482    1.398503   -0.240019
     30          1           0        1.915529    0.565391   -0.551119
     31          6           0       -0.610633    2.935317   -2.982037
     32          1           0       -0.707047    2.980862   -4.062069
     33          6           0        0.380756    2.124417   -2.439776
     34          1           0        1.004115    1.530659   -3.092182
     35          6           0       -1.469432    3.685582   -2.155823
     36          1           0       -2.220349    4.324118   -2.611412
     37          7           0       -1.716608   -0.049270    1.812881
     38          1           0       -0.963940    0.344914    1.252688
     39          6           0       -1.761269   -1.497210    1.869821
     40          1           0       -2.143402   -1.815169    2.843140
     41          6           0       -0.346576   -2.012582    1.621293
     42          6           0       -2.716128   -2.029575    0.750014
     43          1           0       -2.399331   -1.588532   -0.203607
     44          1           0       -3.718791   -1.656582    0.982109
     45          8           0        0.549986   -1.259516    1.236099
     46          8           0       -2.765736   -3.438304    0.684272
     47          1           0       -2.150430   -3.735628   -0.022216
     48          7           0       -0.190287   -3.357334    1.734045
     49          1           0       -1.067285   -3.870384    1.803257
     50          6           0        0.832887   -3.995064    0.892302
     51          1           0        1.806059   -3.581747    1.172400
     52          6           0        0.480672   -3.615201   -0.560321
     53          6           0        0.839004   -5.516949    1.093710
     54          1           0       -0.161974   -5.878694    0.820973
     55          8           0       -0.589702   -3.987870   -1.062413
     56          6           0        1.853565   -6.171121    0.147839
     57          1           0        2.867358   -5.798876    0.341452
     58          1           0        1.863994   -7.255526    0.294293
     59          1           0        1.612550   -5.978763   -0.902390
     60          6           0        1.126920   -5.878334    2.554827
     61          1           0        2.128142   -5.539598    2.848525
     62          1           0        1.087615   -6.963658    2.692608
     63          1           0        0.405852   -5.422830    3.240282
     64          7           0        1.374594   -2.827318   -1.182076
     65          1           0        2.087779   -2.382648   -0.611291
     66          6           0        1.141513   -2.126718   -2.439548
     67          1           0        1.178375   -2.839255   -3.270858
     68          6           0        2.284069   -1.111673   -2.573914
     69          6           0       -0.201286   -1.369360   -2.477450
     70          1           0       -0.285514   -0.787753   -3.399948
     71          1           0       -0.264585   -0.683612   -1.627611
     72          1           0       -1.023489   -2.083014   -2.425367
     73          8           0        2.894658   -0.710916   -1.558702
     74          7           0        2.529299   -0.658818   -3.805246
     75          1           0        1.848396   -0.815293   -4.553754
     76          6           0        3.281651    0.568348   -4.052780
     77          1           0        3.304557    1.095092   -3.102038
     78          6           0        2.433613    1.434030   -5.048734
     79          6           0        4.718738    0.281168   -4.525691
     80          1           0        4.674336   -0.573900   -5.208695
     81          1           0        5.075598    1.126486   -5.122585
     82          8           0        2.830219    2.628744   -5.234307
     83          6           0        5.709814   -0.038180   -3.387300
     84          1           0        5.219104   -0.670791   -2.639388
     85          1           0        6.547228   -0.619231   -3.794040
     86          6           0        6.350949    1.169259   -2.680854
     87          1           0        6.892300    1.792312   -3.399990
     88          1           0        7.101350    0.821085   -1.966104
     89          7           0        5.434489    2.029354   -1.912757
     90          1           0        5.208596    1.715432   -0.977785
     91          7           0        4.731555    3.405499   -3.694954
     92          1           0        3.887683    3.199577   -4.388661
     93          1           0        5.633111    3.225206   -4.118040
     94          7           0        3.464280    3.246794   -1.784968
     95          1           0        2.816198    3.866208   -2.255061
     96          1           0        3.044627    2.618800   -1.103855
     97          6           0        4.562858    2.887293   -2.478608
     98          8           0        1.426491    0.886867   -5.527129
 ---------------------------------------------------------------------

 SCF Done:  E(RB3LYP) =  -2360.25492451     A.U. after    1 cycles

 Alpha  occ. eigenvalues --  -19.27859 -19.22121 -19.21332 -19.20625 -19.20540
 Alpha  occ. eigenvalues --  -19.19397 -19.14923 -19.14047 -14.60689 -14.49752
 Alpha  occ. eigenvalues --  -14.46639 -14.45293 -14.45259 -14.44581 -14.43433
 Alpha  occ. eigenvalues --  -14.43273 -14.42936 -14.41863 -10.44230 -10.41940
 Alpha  occ. eigenvalues --  -10.41118 -10.39111 -10.37068 -10.36994 -10.36172
 Alpha  occ. eigenvalues --  -10.34561 -10.34438 -10.32496 -10.31714 -10.31533
 Alpha  occ. eigenvalues --  -10.31268 -10.31076 -10.30372 -10.29741 -10.29459
 Alpha  occ. eigenvalues --  -10.29152 -10.28245 -10.26686 -10.26215 -10.26210
 Alpha  occ. eigenvalues --  -10.26124 -10.25864 -10.25483 -10.25392 -10.25133
 Alpha  occ. eigenvalues --  -10.24972 -10.24672 -10.23673 -10.23622  -1.20169
 Alpha  occ. eigenvalues --   -1.14668  -1.14007  -1.12721  -1.11964  -1.10729
 Alpha  occ. eigenvalues --   -1.10214  -1.08788  -1.07837  -1.06663  -1.04901
 Alpha  occ. eigenvalues --   -1.02204  -1.00583  -1.00509  -1.00000  -0.99930
 Alpha  occ. eigenvalues --   -0.98799  -0.96721  -0.94213  -0.91147  -0.89932
 Alpha  occ. eigenvalues --   -0.87944  -0.87064  -0.85674  -0.84634  -0.83721
 Alpha  occ. eigenvalues --   -0.81896  -0.81059  -0.80544  -0.79653  -0.77605
 Alpha  occ. eigenvalues --   -0.76772  -0.75410  -0.74932  -0.74756  -0.73508
 Alpha  occ. eigenvalues --   -0.73044  -0.72754  -0.71094  -0.70723  -0.69154
 Alpha  occ. eigenvalues --   -0.68385  -0.67628  -0.67226  -0.67044  -0.66387
 Alpha  occ. eigenvalues --   -0.66169  -0.65591  -0.64745  -0.64457  -0.63892
 Alpha  occ. eigenvalues --   -0.63721  -0.63202  -0.62183  -0.61038  -0.60423
 Alpha  occ. eigenvalues --   -0.60042  -0.59751  -0.59649  -0.58337  -0.58120
 Alpha  occ. eigenvalues --   -0.57846  -0.56951  -0.56631  -0.56191  -0.55670
 Alpha  occ. eigenvalues --   -0.55422  -0.55297  -0.55042  -0.54732  -0.54285
 Alpha  occ. eigenvalues --   -0.54143  -0.53684  -0.53389  -0.52784  -0.52584
 Alpha  occ. eigenvalues --   -0.52271  -0.52149  -0.51832  -0.51561  -0.50843
 Alpha  occ. eigenvalues --   -0.50702  -0.50315  -0.50206  -0.49906  -0.49629
 Alpha  occ. eigenvalues --   -0.49195  -0.48858  -0.48604  -0.48242  -0.48017
 Alpha  occ. eigenvalues --   -0.47679  -0.47414  -0.47078  -0.46785  -0.46553
 Alpha  occ. eigenvalues --   -0.46019  -0.45498  -0.45206  -0.44726  -0.44668
 Alpha  occ. eigenvalues --   -0.44423  -0.44277  -0.44038  -0.43908  -0.42908
 Alpha  occ. eigenvalues --   -0.42455  -0.42286  -0.42262  -0.41380  -0.40847
 Alpha  occ. eigenvalues --   -0.40531  -0.40423  -0.40359  -0.40142  -0.40038
 Alpha  occ. eigenvalues --   -0.39687  -0.39574  -0.37226  -0.36800  -0.36524
 Alpha  occ. eigenvalues --   -0.35417  -0.35269  -0.34999  -0.34550  -0.34415
 Alpha  occ. eigenvalues --   -0.34087  -0.33244  -0.33104  -0.31452  -0.30019
 Alpha  occ. eigenvalues --   -0.29730  -0.29055  -0.28338  -0.28156
 Alpha virt. eigenvalues --   -0.13030  -0.11873  -0.08716  -0.07665  -0.07505
 Alpha virt. eigenvalues --   -0.07255  -0.06923  -0.06650  -0.05620  -0.05164
 Alpha virt. eigenvalues --   -0.04908  -0.02360  -0.02042  -0.01882  -0.01395

 Mulliken charges:
               1
     1  N   -0.758755
     2  H    0.417920
     3  H    0.415699
     4  H    0.437690
     5  C   -0.105542
     6  H    0.227268
     7  C    0.650556
     8  C   -0.487361
     9  H    0.225953
    10  H    0.197346
    11  H    0.196846
    12  O   -0.543896
    13  N   -0.609504
    14  H    0.378192
    15  C   -0.068297
    16  H    0.211728
    17  C    0.611592
    18  C   -0.348263
    19  H    0.162919
    20  H    0.178320
    21  O   -0.550257
    22  C   -0.002812
    23  C    0.003436
    24  H    0.171407
    25  C    0.110327
    26  C    0.227390
    27  C   -0.230211
    28  H    0.137000
    29  N   -0.728545
    30  H    0.400309
    31  C   -0.168114
    32  H    0.173849
    33  C   -0.178685
    34  H    0.163973
    35  C   -0.140471
    36  H    0.135553
    37  N   -0.619135
    38  H    0.398206
    39  C   -0.093618
    40  H    0.202153
    41  C    0.603761
    42  C   -0.039114
    43  H    0.151715
    44  H    0.166543
    45  O   -0.547685
    46  O   -0.644476
    47  H    0.444004
    48  N   -0.600704
    49  H    0.355746
    50  C   -0.031486
    51  H    0.157755
    52  C    0.628325
    53  C   -0.105852
    54  H    0.152913
    55  O   -0.575657
    56  C   -0.461927
    57  H    0.143983
    58  H    0.163736
    59  H    0.166322
    60  C   -0.447963
    61  H    0.146472
    62  H    0.160771
    63  H    0.154253
    64  N   -0.602684
    65  H    0.365495
    66  C   -0.011277
    67  H    0.184404
    68  C    0.599238
    69  C   -0.492452
    70  H    0.184964
    71  H    0.158562
    72  H    0.200278
    73  O   -0.594991
    74  N   -0.579604
    75  H    0.364465
    76  C   -0.092389
    77  H    0.142982
    78  C    0.620230
    79  C   -0.270918
    80  H    0.166204
    81  H    0.146599
    82  O   -0.609948
    83  C   -0.270381
    84  H    0.172817
    85  H    0.156438
    86  C   -0.173558
    87  H    0.168501
    88  H    0.177385
    89  N   -0.558906
    90  H    0.348918
    91  N   -0.750562
    92  H    0.433812
    93  H    0.337497
    94  N   -0.741034
    95  H    0.379476
    96  H    0.379159
    97  C    0.676209
    98  O   -0.558533
 Sum of Mulliken charges =   1.00000

 Dipole moment (field-independent basis, Debye):
    X=             -8.3287    Y=             17.6887    Z=             18.0151  Tot=             26.5858
 Quadrupole moment (field-independent basis, Debye-Ang):
   XX=           -131.1738   YY=           -161.7986   ZZ=           -245.0176
   XY=           -108.5991   XZ=            -94.7376   YZ=             94.9568

 Normal termination of Gaussian 16 at Mon Jul  4 16:58:41 2022.
