 Gaussian 16, Revision C.01,
 Gaussian 16:  ES64L-G16RevC.01  3-Jul-2019

 ----------------------------------------------------------------------
 # B3LYP/6-31G* empiricaldispersion=gd3bj guess=read geom=check nosymm
 integral(ultrafinegrid)
 ----------------------------------------------------------------------

 ------------------------------------------------------
 Candidate Structure: Conf:304 Charge calc in gas phase
 ------------------------------------------------------
 Structure from the checkpoint file:  "conf-304.chk"
 Charge =  1 Multiplicity = 1

                          Input orientation:
 ---------------------------------------------------------------------
 Center     Atomic      Atomic             Coordinates (Angstroms)
 Number     Number       Type             X           Y           Z
 ---------------------------------------------------------------------
      1          7           0       -9.341313    3.081856    1.729925
      2          1           0      -10.001699    3.071752    2.510407
      3          1           0       -9.840691    3.365871    0.882608
      4          1           0       -8.527009    3.761360    1.929019
      5          6           0       -8.578464    1.784001    1.554178
      6          1           0       -8.881842    1.111024    2.359940
      7          6           0       -7.106198    2.239829    1.768242
      8          6           0       -8.838917    1.160427    0.186911
      9          1           0       -8.255362    0.242331    0.079944
     10          1           0       -9.894266    0.898064    0.064459
     11          1           0       -8.536023    1.839111   -0.617745
     12          8           0       -6.914626    3.447669    2.003163
     13          7           0       -6.185234    1.304217    1.671726
     14          1           0       -6.387220    0.325461    1.438056
     15          6           0       -4.744997    1.519928    1.761999
     16          1           0       -4.480873    2.404798    1.173490
     17          6           0       -4.157464    0.239644    1.130608
     18          6           0       -4.283176    1.714299    3.232046
     19          1           0       -4.838298    2.568743    3.633955
     20          1           0       -3.228597    2.011333    3.217518
     21          8           0       -4.900859   -0.720327    0.899935
     22          6           0       -4.463050    0.485342    4.068871
     23          6           0       -5.619289    0.055189    4.676172
     24          1           0       -6.581994    0.541793    4.754364
     25          6           0       -3.471167   -0.537853    4.303354
     26          6           0       -4.101584   -1.569768    5.049348
     27          6           0       -2.110669   -0.669629    3.976445
     28          1           0       -1.587494    0.109625    3.433470
     29          7           0       -5.411546   -1.180633    5.257236
     30          1           0       -6.080621   -1.679495    5.822436
     31          6           0       -2.085884   -2.837345    5.090272
     32          1           0       -1.529433   -3.722863    5.382135
     33          6           0       -3.423549   -2.725903    5.448040
     34          1           0       -3.921736   -3.506412    6.015849
     35          6           0       -1.434269   -1.817434    4.366183
     36          1           0       -0.385051   -1.929682    4.113060
     37          7           0       -2.842601    0.254175    0.894083
     38          1           0       -2.253104    1.040490    1.160851
     39          6           0       -2.087357   -0.939549    0.560917
     40          1           0       -2.510898   -1.796572    1.092536
     41          6           0       -0.653399   -0.677853    1.012124
     42          6           0       -2.120080   -1.234026   -0.967103
     43          1           0       -1.764065   -0.342571   -1.500521
     44          1           0       -3.164315   -1.410859   -1.240932
     45          8           0       -0.271198    0.457273    1.303999
     46          8           0       -1.369346   -2.380424   -1.299844
     47          1           0       -0.453085   -2.079676   -1.503148
     48          7           0        0.142071   -1.774383    1.014724
     49          1           0       -0.254876   -2.572698    0.524988
     50          6           0        1.585446   -1.618223    0.892614
     51          1           0        1.912655   -0.912084    1.661710
     52          6           0        1.886832   -1.028374   -0.499719
     53          6           0        2.274933   -2.984278    1.113754
     54          1           0        1.888293   -3.665411    0.340950
     55          8           0        1.176284   -1.295012   -1.482833
     56          6           0        3.797572   -2.895032    0.952571
     57          1           0        4.228121   -2.176156    1.661043
     58          1           0        4.250850   -3.870245    1.156602
     59          1           0        4.095020   -2.590607   -0.054070
     60          6           0        1.910110   -3.545882    2.494542
     61          1           0        2.286793   -2.887766    3.287758
     62          1           0        2.362982   -4.532621    2.636353
     63          1           0        0.828526   -3.643594    2.624184
     64          7           0        2.959318   -0.235534   -0.574943
     65          1           0        3.568554   -0.067626    0.223419
     66          6           0        3.471994    0.322522   -1.813980
     67          1           0        3.458446   -0.458119   -2.583649
     68          6           0        4.927587    0.726650   -1.508619
     69          6           0        2.631800    1.515624   -2.292562
     70          1           0        3.020599    1.914475   -3.234454
     71          1           0        2.647023    2.313577   -1.543718
     72          1           0        1.600103    1.191051   -2.447817
     73          8           0        5.358074    0.692104   -0.349489
     74          7           0        5.644411    1.122695   -2.567558
     75          1           0        5.275188    1.137347   -3.516323
     76          6           0        7.005144    1.637620   -2.495768
     77          1           0        7.087045    2.325873   -1.649727
     78          6           0        7.237681    2.394523   -3.828890
     79          6           0        7.988789    0.452699   -2.288053
     80          1           0        7.537986   -0.163406   -1.505402
     81          1           0        7.992514   -0.151670   -3.205067
     82          8           0        8.146295    3.296924   -3.818297
     83          6           0        9.433364    0.790969   -1.852849
     84          1           0        9.469880    1.785131   -1.389766
     85          1           0        9.747549    0.086206   -1.074759
     86          6           0       10.496339    0.719685   -2.958749
     87          1           0       10.445598   -0.255392   -3.458521
     88          1           0       11.496589    0.822291   -2.519653
     89          7           0       10.268354    1.784905   -3.933632
     90          1           0        9.607491    2.530019   -3.621915
     91          7           0       10.897729    0.606722   -5.850519
     92          1           0       10.975928    0.593840   -6.856949
     93          1           0       11.655298    0.163623   -5.351713
     94          7           0        9.590458    2.550550   -5.982917
     95          1           0        9.460479    2.403105   -6.972976
     96          1           0        8.861348    3.076532   -5.453021
     97          6           0       10.253610    1.643744   -5.256683
     98          8           0        6.571261    2.027799   -4.811611
 ---------------------------------------------------------------------

 SCF Done:  E(RB3LYP) =  -2360.24581556     A.U. after    1 cycles

 Alpha  occ. eigenvalues --  -19.27018 -19.20991 -19.18976 -19.18953 -19.17896
 Alpha  occ. eigenvalues --  -19.15953 -19.13102 -19.12544 -14.59913 -14.48948
 Alpha  occ. eigenvalues --  -14.45435 -14.44923 -14.44274 -14.42312 -14.42221
 Alpha  occ. eigenvalues --  -14.41917 -14.41191 -14.39249 -10.43468 -10.41316
 Alpha  occ. eigenvalues --  -10.39958 -10.37896 -10.35384 -10.34488 -10.33863
 Alpha  occ. eigenvalues --  -10.33810 -10.32890 -10.30600 -10.29657 -10.29354
 Alpha  occ. eigenvalues --  -10.29204 -10.29190 -10.29112 -10.28431 -10.28265
 Alpha  occ. eigenvalues --  -10.28222 -10.25739 -10.25685 -10.25565 -10.24921
 Alpha  occ. eigenvalues --  -10.24819 -10.24472 -10.24348 -10.24328 -10.23832
 Alpha  occ. eigenvalues --  -10.23120 -10.22986 -10.22892 -10.22664  -1.19436
 Alpha  occ. eigenvalues --   -1.13849  -1.12992  -1.10950  -1.09334  -1.08932
 Alpha  occ. eigenvalues --   -1.07718  -1.06599  -1.06124  -1.05912  -1.04664
 Alpha  occ. eigenvalues --   -1.01007  -0.99179  -0.98698  -0.97942  -0.97345
 Alpha  occ. eigenvalues --   -0.96635  -0.95698  -0.93547  -0.90115  -0.88964
 Alpha  occ. eigenvalues --   -0.86871  -0.84903  -0.84656  -0.82447  -0.82272
 Alpha  occ. eigenvalues --   -0.81199  -0.79682  -0.78669  -0.78415  -0.76413
 Alpha  occ. eigenvalues --   -0.76194  -0.74429  -0.73978  -0.72766  -0.72673
 Alpha  occ. eigenvalues --   -0.71857  -0.70638  -0.70208  -0.69709  -0.68590
 Alpha  occ. eigenvalues --   -0.67118  -0.66340  -0.66156  -0.65695  -0.65201
 Alpha  occ. eigenvalues --   -0.64656  -0.63897  -0.63569  -0.62880  -0.62682
 Alpha  occ. eigenvalues --   -0.62295  -0.61694  -0.60731  -0.60518  -0.59493
 Alpha  occ. eigenvalues --   -0.59289  -0.57879  -0.57282  -0.56907  -0.56732
 Alpha  occ. eigenvalues --   -0.56146  -0.55876  -0.55750  -0.54974  -0.54412
 Alpha  occ. eigenvalues --   -0.54154  -0.53913  -0.53616  -0.53176  -0.52991
 Alpha  occ. eigenvalues --   -0.52617  -0.52210  -0.51947  -0.51547  -0.51284
 Alpha  occ. eigenvalues --   -0.50811  -0.50551  -0.50123  -0.49425  -0.49384
 Alpha  occ. eigenvalues --   -0.49074  -0.48817  -0.48609  -0.48507  -0.48360
 Alpha  occ. eigenvalues --   -0.48076  -0.47925  -0.47477  -0.47076  -0.46245
 Alpha  occ. eigenvalues --   -0.45954  -0.45537  -0.45316  -0.45107  -0.44818
 Alpha  occ. eigenvalues --   -0.44708  -0.44536  -0.44302  -0.43636  -0.43344
 Alpha  occ. eigenvalues --   -0.43129  -0.42195  -0.41810  -0.41768  -0.41344
 Alpha  occ. eigenvalues --   -0.41213  -0.40630  -0.39885  -0.39769  -0.39553
 Alpha  occ. eigenvalues --   -0.39431  -0.39387  -0.39064  -0.38977  -0.38713
 Alpha  occ. eigenvalues --   -0.38111  -0.37966  -0.35941  -0.35729  -0.35303
 Alpha  occ. eigenvalues --   -0.33793  -0.33385  -0.32884  -0.32602  -0.31709
 Alpha  occ. eigenvalues --   -0.31382  -0.30651  -0.30126  -0.29789  -0.28531
 Alpha  occ. eigenvalues --   -0.28435  -0.27316  -0.26910  -0.26767
 Alpha virt. eigenvalues --   -0.12390  -0.11105  -0.07762  -0.06644  -0.06168
 Alpha virt. eigenvalues --   -0.05123  -0.04806  -0.04490  -0.03631  -0.03409
 Alpha virt. eigenvalues --   -0.01731  -0.01663  -0.01481  -0.01247  -0.00908

 Mulliken charges:
               1
     1  N   -0.760621
     2  H    0.414977
     3  H    0.413722
     4  H    0.438564
     5  C   -0.104868
     6  H    0.224298
     7  C    0.651059
     8  C   -0.485191
     9  H    0.225149
    10  H    0.194833
    11  H    0.194774
    12  O   -0.548135
    13  N   -0.599443
    14  H    0.381756
    15  C   -0.061264
    16  H    0.191125
    17  C    0.653177
    18  C   -0.374907
    19  H    0.179723
    20  H    0.178361
    21  O   -0.553250
    22  C    0.062712
    23  C    0.002361
    24  H    0.121346
    25  C    0.085154
    26  C    0.316694
    27  C   -0.230506
    28  H    0.147737
    29  N   -0.688251
    30  H    0.333092
    31  C   -0.151346
    32  H    0.137289
    33  C   -0.158588
    34  H    0.133853
    35  C   -0.151329
    36  H    0.142332
    37  N   -0.624054
    38  H    0.361166
    39  C   -0.068745
    40  H    0.200434
    41  C    0.621441
    42  C   -0.035613
    43  H    0.144227
    44  H    0.166362
    45  O   -0.551882
    46  O   -0.651861
    47  H    0.443924
    48  N   -0.603036
    49  H    0.349034
    50  C   -0.055817
    51  H    0.174759
    52  C    0.646266
    53  C   -0.101474
    54  H    0.142998
    55  O   -0.583579
    56  C   -0.464189
    57  H    0.153466
    58  H    0.157583
    59  H    0.163403
    60  C   -0.449864
    61  H    0.149125
    62  H    0.156031
    63  H    0.160296
    64  N   -0.597613
    65  H    0.364861
    66  C   -0.043496
    67  H    0.177526
    68  C    0.623478
    69  C   -0.448339
    70  H    0.163086
    71  H    0.162771
    72  H    0.176393
    73  O   -0.560326
    74  N   -0.620338
    75  H    0.355264
    76  C   -0.025914
    77  H    0.167208
    78  C    0.586451
    79  C   -0.276717
    80  H    0.175041
    81  H    0.139357
    82  O   -0.645914
    83  C   -0.302927
    84  H    0.171946
    85  H    0.157547
    86  C   -0.149968
    87  H    0.157130
    88  H    0.164828
    89  N   -0.602004
    90  H    0.406704
    91  N   -0.753373
    92  H    0.360393
    93  H    0.366732
    94  N   -0.757049
    95  H    0.345519
    96  H    0.413270
    97  C    0.754985
    98  O   -0.563298
 Sum of Mulliken charges =   1.00000

 Dipole moment (field-independent basis, Debye):
    X=            -19.9379    Y=              4.5894    Z=              1.8883  Tot=             20.5462
 Quadrupole moment (field-independent basis, Debye-Ang):
   XX=            249.0522   YY=           -271.0298   ZZ=           -208.4145
   XY=           -104.4390   XZ=           -166.2453   YZ=              0.9120

 Normal termination of Gaussian 16 at Mon Jul  4 16:58:29 2022.
