 Gaussian 16, Revision C.01,
 Gaussian 16:  ES64L-G16RevC.01  3-Jul-2019

 ----------------------------------------------------------------------
 # B3LYP/6-31G* empiricaldispersion=gd3bj guess=read geom=check nosymm
 integral(ultrafinegrid)
 ----------------------------------------------------------------------

 ------------------------------------------------------
 Candidate Structure: Conf:950 Charge calc in gas phase
 ------------------------------------------------------
 Structure from the checkpoint file:  "conf-950.chk"
 Charge =  1 Multiplicity = 1

                          Input orientation:
 ---------------------------------------------------------------------
 Center     Atomic      Atomic             Coordinates (Angstroms)
 Number     Number       Type             X           Y           Z
 ---------------------------------------------------------------------
      1          7           0       -9.351276    0.712167    5.232111
      2          1           0       -8.919967    1.160205    6.066579
      3          1           0      -10.284862    0.372822    5.475450
      4          1           0       -9.395226    1.426889    4.468576
      5          6           0       -8.457364   -0.359017    4.656316
      6          1           0       -7.887990   -0.785798    5.483086
      7          6           0       -7.560396    0.452568    3.692891
      8          6           0       -9.281726   -1.408473    3.917789
      9          1           0       -8.612602   -2.157749    3.485932
     10          1           0       -9.970377   -1.925512    4.594516
     11          1           0       -9.847433   -0.950399    3.100176
     12          8           0       -8.064960    1.444586    3.155215
     13          7           0       -6.312976    0.016196    3.548059
     14          1           0       -5.991170   -0.868023    3.942045
     15          6           0       -5.263239    0.715143    2.823706
     16          1           0       -5.697443    1.209834    1.951548
     17          6           0       -4.245547   -0.368205    2.434056
     18          6           0       -4.551058    1.767023    3.733516
     19          1           0       -3.817544    2.302533    3.121450
     20          1           0       -3.981955    1.221291    4.495317
     21          8           0       -4.248192   -1.449921    3.026853
     22          6           0       -5.511398    2.717038    4.377104
     23          6           0       -5.952760    3.913075    3.867515
     24          1           0       -5.630466    4.444124    2.982725
     25          6           0       -6.283918    2.476559    5.569838
     26          6           0       -7.202226    3.562605    5.705500
     27          6           0       -6.310798    1.445783    6.523648
     28          1           0       -5.604927    0.622412    6.462958
     29          7           0       -6.966689    4.419904    4.655938
     30          1           0       -7.419400    5.310264    4.514235
     31          6           0       -8.160675    2.572223    7.658033
     32          1           0       -8.863935    2.599415    8.484971
     33          6           0       -8.143313    3.620514    6.737310
     34          1           0       -8.832215    4.455194    6.828708
     35          6           0       -7.245799    1.496444    7.556561
     36          1           0       -7.257170    0.716567    8.312454
     37          7           0       -3.365666   -0.007547    1.487721
     38          1           0       -3.305255    0.964666    1.177771
     39          6           0       -2.104498   -0.696166    1.279001
     40          1           0       -1.701938   -1.030064    2.243809
     41          6           0       -1.147007    0.379171    0.710931
     42          6           0       -2.275932   -1.939155    0.398269
     43          1           0       -2.497624   -1.639823   -0.635759
     44          1           0       -3.118182   -2.522999    0.788336
     45          8           0       -1.529206    1.548815    0.647954
     46          8           0       -1.059032   -2.679771    0.485995
     47          1           0       -1.087218   -3.402892   -0.157834
     48          7           0        0.044869   -0.095775    0.289742
     49          1           0        0.165410   -1.094936    0.430229
     50          6           0        1.274253    0.694124    0.247492
     51          1           0        2.013780    0.068140   -0.267213
     52          6           0        1.731027    0.910009    1.711456
     53          6           0        1.151666    2.019256   -0.547852
     54          1           0        0.488685    2.679984    0.016665
     55          8           0        0.917041    1.016500    2.626922
     56          6           0        2.520329    2.696950   -0.704943
     57          1           0        3.230407    2.044513   -1.230617
     58          1           0        2.414412    3.609593   -1.300640
     59          1           0        2.969178    2.974975    0.251927
     60          6           0        0.524414    1.762248   -1.922901
     61          1           0        1.123482    1.048148   -2.502653
     62          1           0        0.476353    2.695953   -2.493714
     63          1           0       -0.490529    1.368939   -1.832931
     64          7           0        3.067398    0.948522    1.890144
     65          1           0        3.719665    0.954638    1.109747
     66          6           0        3.687088    1.293246    3.156395
     67          1           0        3.131651    2.125840    3.605963
     68          6           0        5.114505    1.757369    2.809572
     69          6           0        3.683874    0.110005    4.135612
     70          1           0        4.129117    0.389251    5.095695
     71          1           0        4.252931   -0.728049    3.720818
     72          1           0        2.652495   -0.207508    4.307279
     73          8           0        5.541857    1.672924    1.651723
     74          7           0        5.832588    2.226911    3.839211
     75          1           0        5.466704    2.297394    4.785931
     76          6           0        7.233318    2.615053    3.751269
     77          1           0        7.774573    1.876855    3.152533
     78          6           0        7.763086    2.616046    5.207951
     79          6           0        7.339106    4.004399    3.062504
     80          1           0        6.663369    3.952406    2.204765
     81          1           0        6.927077    4.758194    3.746842
     82          8           0        9.027017    2.457919    5.350988
     83          6           0        8.728868    4.440089    2.543375
     84          1           0        9.370012    3.563081    2.388275
     85          1           0        8.613404    4.904448    1.557497
     86          6           0        9.480513    5.455660    3.415878
     87          1           0        8.839001    6.324272    3.609187
     88          1           0       10.375535    5.807939    2.887682
     89          7           0        9.861064    4.833887    4.682894
     90          1           0        9.769857    3.793736    4.708875
     91          7           0        9.600965    6.711444    6.048906
     92          1           0        9.615942    7.093141    6.983445
     93          1           0        9.993775    7.306211    5.333901
     94          7           0        9.646983    4.542361    6.944140
     95          1           0        9.413572    4.906251    7.856143
     96          1           0        9.384723    3.558854    6.707195
     97          6           0        9.702804    5.365919    5.891938
     98          8           0        6.938280    2.826378    6.112516
 ---------------------------------------------------------------------

 SCF Done:  E(RB3LYP) =  -2360.24134235     A.U. after    1 cycles

 Alpha  occ. eigenvalues --  -19.24619 -19.23019 -19.20899 -19.18188 -19.15511
 Alpha  occ. eigenvalues --  -19.15339 -19.12855 -19.12231 -14.57677 -14.47970
 Alpha  occ. eigenvalues --  -14.47969 -14.45293 -14.43935 -14.42125 -14.42007
 Alpha  occ. eigenvalues --  -14.41214 -14.39559 -14.38702 -10.41776 -10.39769
 Alpha  occ. eigenvalues --  -10.39042 -10.37742 -10.35185 -10.33602 -10.32616
 Alpha  occ. eigenvalues --  -10.32502 -10.32244 -10.32242 -10.31656 -10.31064
 Alpha  occ. eigenvalues --  -10.30328 -10.30296 -10.29889 -10.29525 -10.29479
 Alpha  occ. eigenvalues --  -10.29242 -10.29193 -10.29000 -10.28919 -10.28361
 Alpha  occ. eigenvalues --  -10.27874 -10.27264 -10.25293 -10.24221 -10.23738
 Alpha  occ. eigenvalues --  -10.22782 -10.21891 -10.21661 -10.21504  -1.17273
 Alpha  occ. eigenvalues --   -1.12921  -1.11896  -1.10434  -1.09677  -1.08748
 Alpha  occ. eigenvalues --   -1.07935  -1.07705  -1.06851  -1.05795  -1.04758
 Alpha  occ. eigenvalues --   -1.00860  -0.98486  -0.98270  -0.97068  -0.96439
 Alpha  occ. eigenvalues --   -0.96321  -0.95186  -0.94763  -0.91969  -0.90238
 Alpha  occ. eigenvalues --   -0.86944  -0.85542  -0.84343  -0.84215  -0.83136
 Alpha  occ. eigenvalues --   -0.81942  -0.81276  -0.79751  -0.77976  -0.76455
 Alpha  occ. eigenvalues --   -0.75706  -0.72885  -0.72738  -0.72445  -0.72353
 Alpha  occ. eigenvalues --   -0.71996  -0.70565  -0.70230  -0.70029  -0.69608
 Alpha  occ. eigenvalues --   -0.69018  -0.66871  -0.66304  -0.65912  -0.64966
 Alpha  occ. eigenvalues --   -0.64663  -0.64494  -0.63749  -0.62485  -0.62065
 Alpha  occ. eigenvalues --   -0.61773  -0.61227  -0.61100  -0.60604  -0.59243
 Alpha  occ. eigenvalues --   -0.58881  -0.58360  -0.57928  -0.57362  -0.57071
 Alpha  occ. eigenvalues --   -0.56757  -0.56341  -0.56100  -0.55091  -0.54861
 Alpha  occ. eigenvalues --   -0.54053  -0.53917  -0.53595  -0.53378  -0.52997
 Alpha  occ. eigenvalues --   -0.52605  -0.52228  -0.52059  -0.52010  -0.51828
 Alpha  occ. eigenvalues --   -0.51280  -0.50976  -0.50789  -0.50259  -0.50031
 Alpha  occ. eigenvalues --   -0.49687  -0.49154  -0.48725  -0.48579  -0.48529
 Alpha  occ. eigenvalues --   -0.48199  -0.47792  -0.47534  -0.47117  -0.46745
 Alpha  occ. eigenvalues --   -0.46183  -0.45975  -0.45174  -0.45062  -0.45035
 Alpha  occ. eigenvalues --   -0.44404  -0.44353  -0.44251  -0.43892  -0.43610
 Alpha  occ. eigenvalues --   -0.43352  -0.43021  -0.42713  -0.42330  -0.41820
 Alpha  occ. eigenvalues --   -0.41311  -0.41064  -0.40623  -0.40192  -0.39408
 Alpha  occ. eigenvalues --   -0.39073  -0.38740  -0.38235  -0.38133  -0.37890
 Alpha  occ. eigenvalues --   -0.37595  -0.37504  -0.37307  -0.35794  -0.35643
 Alpha  occ. eigenvalues --   -0.34649  -0.34341  -0.33160  -0.32394  -0.32265
 Alpha  occ. eigenvalues --   -0.31763  -0.30248  -0.30019  -0.29507  -0.29096
 Alpha  occ. eigenvalues --   -0.28694  -0.28165  -0.26965  -0.26409
 Alpha virt. eigenvalues --   -0.12010  -0.11154  -0.08565  -0.07804  -0.06912
 Alpha virt. eigenvalues --   -0.04646  -0.04511  -0.03536  -0.02583  -0.01907
 Alpha virt. eigenvalues --   -0.01661  -0.01394  -0.00929  -0.00800  -0.00481

 Mulliken charges:
               1
     1  N   -0.762074
     2  H    0.421382
     3  H    0.399687
     4  H    0.420101
     5  C   -0.102007
     6  H    0.203805
     7  C    0.667375
     8  C   -0.475774
     9  H    0.211722
    10  H    0.184374
    11  H    0.196857
    12  O   -0.541887
    13  N   -0.605519
    14  H    0.364672
    15  C   -0.062076
    16  H    0.193357
    17  C    0.628231
    18  C   -0.373489
    19  H    0.191575
    20  H    0.177777
    21  O   -0.543338
    22  C    0.084265
    23  C    0.035089
    24  H    0.180769
    25  C    0.062456
    26  C    0.327393
    27  C   -0.224790
    28  H    0.150228
    29  N   -0.683414
    30  H    0.346863
    31  C   -0.205151
    32  H    0.157092
    33  C   -0.171531
    34  H    0.155917
    35  C   -0.196002
    36  H    0.153271
    37  N   -0.623798
    38  H    0.366494
    39  C   -0.072763
    40  H    0.212595
    41  C    0.636996
    42  C   -0.037539
    43  H    0.145053
    44  H    0.166175
    45  O   -0.548140
    46  O   -0.624889
    47  H    0.414459
    48  N   -0.610820
    49  H    0.369072
    50  C   -0.063731
    51  H    0.145324
    52  C    0.619578
    53  C   -0.079569
    54  H    0.173411
    55  O   -0.540815
    56  C   -0.468408
    57  H    0.143656
    58  H    0.150977
    59  H    0.161410
    60  C   -0.441830
    61  H    0.134466
    62  H    0.146387
    63  H    0.154893
    64  N   -0.612735
    65  H    0.359959
    66  C   -0.036966
    67  H    0.172839
    68  C    0.621256
    69  C   -0.449599
    70  H    0.158164
    71  H    0.157553
    72  H    0.178034
    73  O   -0.561243
    74  N   -0.620649
    75  H    0.354105
    76  C   -0.023321
    77  H    0.166460
    78  C    0.585024
    79  C   -0.276727
    80  H    0.176032
    81  H    0.137860
    82  O   -0.646658
    83  C   -0.302846
    84  H    0.171554
    85  H    0.157013
    86  C   -0.149587
    87  H    0.156579
    88  H    0.163525
    89  N   -0.602126
    90  H    0.406800
    91  N   -0.753121
    92  H    0.358975
    93  H    0.365984
    94  N   -0.758338
    95  H    0.344213
    96  H    0.414398
    97  C    0.754076
    98  O   -0.562336
 Sum of Mulliken charges =   1.00000

 Dipole moment (field-independent basis, Debye):
    X=            -23.9670    Y=             13.0462    Z=             22.0134  Tot=             35.0601
 Quadrupole moment (field-independent basis, Debye-Ang):
   XX=            133.8077   YY=           -161.9846   ZZ=           -147.0608
   XY=             82.7121   XZ=           -117.4487   YZ=             89.6128

 Normal termination of Gaussian 16 at Mon Jul  4 16:58:30 2022.
