 Gaussian 16, Revision C.01,
 Gaussian 16:  ES64L-G16RevC.01  3-Jul-2019

 ----------------------------------------------------------------------
 # B3LYP/6-31G* empiricaldispersion=gd3bj guess=read geom=check nosymm
 integral(ultrafinegrid)
 ----------------------------------------------------------------------

 ------------------------------------------------------
 Candidate Structure: Conf:966 Charge calc in gas phase
 ------------------------------------------------------
 Structure from the checkpoint file:  "conf-966.chk"
 Charge =  1 Multiplicity = 1

                          Input orientation:
 ---------------------------------------------------------------------
 Center     Atomic      Atomic             Coordinates (Angstroms)
 Number     Number       Type             X           Y           Z
 ---------------------------------------------------------------------
      1          7           0       -8.109271    1.872143    6.277430
      2          1           0       -8.708348    1.148948    6.680754
      3          1           0       -8.610184    2.765146    6.306747
      4          1           0       -7.181581    1.965941    6.814380
      5          6           0       -7.594965    1.545665    4.889351
      6          1           0       -7.763591    0.476563    4.730852
      7          6           0       -6.065186    1.772796    5.047449
      8          6           0       -8.281670    2.381002    3.816880
      9          1           0       -7.897405    2.111662    2.829696
     10          1           0       -9.361090    2.201387    3.805773
     11          1           0       -8.092378    3.449440    3.965975
     12          8           0       -5.639812    1.973506    6.201192
     13          7           0       -5.357634    1.722686    3.939303
     14          1           0       -5.769216    1.480521    3.029625
     15          6           0       -3.904469    1.711837    3.838896
     16          1           0       -3.503927    2.671394    4.183264
     17          6           0       -3.665931    1.563173    2.318336
     18          6           0       -3.262561    0.565288    4.676636
     19          1           0       -3.326178    0.855863    5.728374
     20          1           0       -2.196892    0.519956    4.423023
     21          8           0       -4.614320    1.307438    1.575325
     22          6           0       -3.918549   -0.763295    4.468459
     23          6           0       -4.882007   -1.322306    5.274469
     24          1           0       -5.269173   -0.969389    6.220927
     25          6           0       -3.734308   -1.668367    3.358836
     26          6           0       -4.632159   -2.752388    3.548249
     27          6           0       -2.880209   -1.680574    2.243661
     28          1           0       -2.152381   -0.890546    2.106858
     29          7           0       -5.335956   -2.505085    4.715276
     30          1           0       -5.905282   -3.187685    5.191964
     31          6           0       -3.868034   -3.795181    1.547741
     32          1           0       -3.904903   -4.609162    0.830322
     33          6           0       -4.711060   -3.822547    2.651662
     34          1           0       -5.401376   -4.645761    2.811721
     35          6           0       -2.957900   -2.736671    1.347974
     36          1           0       -2.304111   -2.751416    0.481326
     37          7           0       -2.395116    1.720632    1.917906
     38          1           0       -1.636792    1.764376    2.593695
     39          6           0       -1.947054    1.412018    0.573001
     40          1           0       -2.705163    0.784618    0.095883
     41          6           0       -0.605187    0.675173    0.719048
     42          6           0       -1.746405    2.680707   -0.268840
     43          1           0       -1.380342    2.387777   -1.264695
     44          1           0       -0.968899    3.299178    0.207436
     45          8           0        0.033369    0.752041    1.770375
     46          8           0       -2.989177    3.350234   -0.334244
     47          1           0       -2.872782    4.144157   -0.877822
     48          7           0       -0.205058   -0.007095   -0.370776
     49          1           0       -0.721450    0.077104   -1.243912
     50          6           0        1.165092   -0.459779   -0.580470
     51          1           0        1.803337    0.045043    0.152349
     52          6           0        1.505472   -0.008194   -2.012287
     53          6           0        1.300048   -1.995222   -0.397907
     54          1           0        0.601142   -2.457164   -1.108957
     55          8           0        0.610790    0.099368   -2.854621
     56          6           0        2.716242   -2.496592   -0.718481
     57          1           0        3.458830   -2.007545   -0.073067
     58          1           0        2.779091   -3.573458   -0.529939
     59          1           0        2.996547   -2.315182   -1.759998
     60          6           0        0.903729   -2.400813    1.026218
     61          1           0        1.572971   -1.941264    1.762350
     62          1           0        0.963829   -3.488419    1.141781
     63          1           0       -0.115073   -2.094626    1.270189
     64          7           0        2.801917    0.247402   -2.258629
     65          1           0        3.515908    0.064087   -1.562425
     66          6           0        3.317377    0.525204   -3.589460
     67          1           0        2.698976   -0.014853   -4.313265
     68          6           0        4.753823   -0.010350   -3.640632
     69          6           0        3.280044    2.026931   -3.920181
     70          1           0        3.702005    2.223591   -4.910483
     71          1           0        3.858350    2.591036   -3.181158
     72          1           0        2.243288    2.372925   -3.899468
     73          8           0        5.315496   -0.365923   -2.565465
     74          7           0        5.304828   -0.020801   -4.841311
     75          1           0        4.890627    0.509220   -5.642739
     76          6           0        6.725496   -0.105755   -5.150052
     77          1           0        7.293025    0.337835   -4.325230
     78          6           0        6.936731    0.793068   -6.435844
     79          6           0        7.221065   -1.536172   -5.421936
     80          1           0        6.667491   -2.231819   -4.781282
     81          1           0        6.965960   -1.813025   -6.449502
     82          8           0        8.103757    0.802890   -6.855982
     83          6           0        8.743872   -1.664934   -5.206243
     84          1           0        9.260860   -1.628757   -6.167828
     85          1           0        9.116369   -0.776476   -4.687526
     86          6           0        9.210782   -2.946091   -4.487002
     87          1           0       10.247339   -2.837326   -4.149958
     88          1           0        9.187070   -3.792286   -5.179270
     89          7           0        8.364551   -3.384998   -3.342805
     90          1           0        8.120959   -4.366275   -3.329840
     91          7           0        7.872474   -1.326039   -2.344461
     92          1           0        7.066134   -0.680043   -2.307151
     93          1           0        8.749418   -0.961011   -2.685552
     94          7           0        6.402109   -3.080199   -2.118919
     95          1           0        5.756351   -2.370532   -1.779040
     96          1           0        5.953094   -3.821981   -2.640113
     97          6           0        7.558307   -2.588697   -2.628744
     98          8           0        5.878759    1.337488   -6.855119
 ---------------------------------------------------------------------

 SCF Done:  E(RB3LYP) =  -2360.18757358     A.U. after    2 cycles

 Alpha  occ. eigenvalues --  -19.26992 -19.21944 -19.21480 -19.20130 -19.19608
 Alpha  occ. eigenvalues --  -19.18585 -19.08734 -19.07542 -14.60098 -14.48857
 Alpha  occ. eigenvalues --  -14.47358 -14.46603 -14.46182 -14.45415 -14.44959
 Alpha  occ. eigenvalues --  -14.43784 -14.42617 -14.40150 -10.43452 -10.42844
 Alpha  occ. eigenvalues --  -10.41216 -10.38445 -10.37074 -10.35631 -10.35320
 Alpha  occ. eigenvalues --  -10.34278 -10.33843 -10.31534 -10.31512 -10.31317
 Alpha  occ. eigenvalues --  -10.30498 -10.30425 -10.29592 -10.29477 -10.29012
 Alpha  occ. eigenvalues --  -10.26893 -10.26797 -10.26549 -10.26225 -10.26070
 Alpha  occ. eigenvalues --  -10.25742 -10.25664 -10.25232 -10.25224 -10.24929
 Alpha  occ. eigenvalues --  -10.24819 -10.23724 -10.23680 -10.23278  -1.19408
 Alpha  occ. eigenvalues --   -1.14098  -1.13530  -1.12071  -1.11808  -1.10678
 Alpha  occ. eigenvalues --   -1.09705  -1.09490  -1.06091  -1.05787  -1.01970
 Alpha  occ. eigenvalues --   -1.01791  -1.01123  -1.00570  -0.99482  -0.99250
 Alpha  occ. eigenvalues --   -0.97207  -0.93590  -0.93163  -0.91347  -0.89609
 Alpha  occ. eigenvalues --   -0.88258  -0.86081  -0.85855  -0.83953  -0.83357
 Alpha  occ. eigenvalues --   -0.81649  -0.80996  -0.79961  -0.79755  -0.78007
 Alpha  occ. eigenvalues --   -0.77046  -0.75440  -0.74911  -0.74775  -0.73337
 Alpha  occ. eigenvalues --   -0.72248  -0.71988  -0.70781  -0.70055  -0.69731
 Alpha  occ. eigenvalues --   -0.68681  -0.68038  -0.67083  -0.66888  -0.66729
 Alpha  occ. eigenvalues --   -0.66175  -0.64869  -0.64853  -0.64128  -0.63603
 Alpha  occ. eigenvalues --   -0.63331  -0.62740  -0.61987  -0.61692  -0.60814
 Alpha  occ. eigenvalues --   -0.59936  -0.59428  -0.58967  -0.58840  -0.57282
 Alpha  occ. eigenvalues --   -0.56998  -0.56448  -0.56258  -0.55911  -0.55666
 Alpha  occ. eigenvalues --   -0.55416  -0.54865  -0.54367  -0.54276  -0.54226
 Alpha  occ. eigenvalues --   -0.53744  -0.53603  -0.52994  -0.52856  -0.52264
 Alpha  occ. eigenvalues --   -0.51869  -0.51670  -0.51450  -0.50762  -0.50419
 Alpha  occ. eigenvalues --   -0.50412  -0.50098  -0.49808  -0.49605  -0.49368
 Alpha  occ. eigenvalues --   -0.49055  -0.48587  -0.47998  -0.47780  -0.47354
 Alpha  occ. eigenvalues --   -0.47229  -0.47078  -0.46392  -0.46088  -0.45867
 Alpha  occ. eigenvalues --   -0.45686  -0.45232  -0.44506  -0.44469  -0.43655
 Alpha  occ. eigenvalues --   -0.43150  -0.42804  -0.42737  -0.42212  -0.41633
 Alpha  occ. eigenvalues --   -0.41500  -0.41122  -0.41062  -0.40901  -0.40729
 Alpha  occ. eigenvalues --   -0.40514  -0.40048  -0.39856  -0.39133  -0.39073
 Alpha  occ. eigenvalues --   -0.38293  -0.37782  -0.36511  -0.36071  -0.36043
 Alpha  occ. eigenvalues --   -0.35342  -0.34850  -0.34576  -0.34209  -0.33775
 Alpha  occ. eigenvalues --   -0.33447  -0.32399  -0.32110  -0.31398  -0.29896
 Alpha  occ. eigenvalues --   -0.28255  -0.23740  -0.23629  -0.21824
 Alpha virt. eigenvalues --   -0.12793  -0.10889  -0.08870  -0.08830  -0.07219
 Alpha virt. eigenvalues --   -0.06361  -0.06242  -0.05072  -0.04820  -0.04436
 Alpha virt. eigenvalues --   -0.04173  -0.03634  -0.02574  -0.01556  -0.00466

 Mulliken charges:
               1
     1  N   -0.758081
     2  H    0.413368
     3  H    0.412809
     4  H    0.435681
     5  C   -0.112807
     6  H    0.233192
     7  C    0.672273
     8  C   -0.485310
     9  H    0.226018
    10  H    0.193026
    11  H    0.192935
    12  O   -0.560852
    13  N   -0.616216
    14  H    0.385888
    15  C   -0.040131
    16  H    0.194484
    17  C    0.651954
    18  C   -0.395154
    19  H    0.188360
    20  H    0.182734
    21  O   -0.537232
    22  C    0.069205
    23  C   -0.024347
    24  H    0.141311
    25  C    0.080107
    26  C    0.303559
    27  C   -0.194290
    28  H    0.139581
    29  N   -0.690234
    30  H    0.333604
    31  C   -0.148903
    32  H    0.140852
    33  C   -0.160436
    34  H    0.134998
    35  C   -0.155559
    36  H    0.133333
    37  N   -0.608249
    38  H    0.359356
    39  C   -0.083097
    40  H    0.205681
    41  C    0.618631
    42  C   -0.020917
    43  H    0.148587
    44  H    0.137513
    45  O   -0.549533
    46  O   -0.608241
    47  H    0.406478
    48  N   -0.604231
    49  H    0.361797
    50  C   -0.062772
    51  H    0.173124
    52  C    0.615225
    53  C   -0.068132
    54  H    0.143361
    55  O   -0.546929
    56  C   -0.479683
    57  H    0.143871
    58  H    0.155969
    59  H    0.152480
    60  C   -0.454647
    61  H    0.155561
    62  H    0.148101
    63  H    0.168322
    64  N   -0.603059
    65  H    0.350527
    66  C   -0.051916
    67  H    0.194301
    68  C    0.612063
    69  C   -0.457386
    70  H    0.200891
    71  H    0.155049
    72  H    0.172677
    73  O   -0.637122
    74  N   -0.588962
    75  H    0.377930
    76  C   -0.081669
    77  H    0.121598
    78  C    0.591731
    79  C   -0.258225
    80  H    0.103538
    81  H    0.177691
    82  O   -0.574009
    83  C   -0.296759
    84  H    0.208745
    85  H    0.154468
    86  C   -0.165111
    87  H    0.184822
    88  H    0.178467
    89  N   -0.580267
    90  H    0.352156
    91  N   -0.724150
    92  H    0.413725
    93  H    0.366589
    94  N   -0.740472
    95  H    0.391868
    96  H    0.353133
    97  C    0.711291
    98  O   -0.601499
 Sum of Mulliken charges =   1.00000

 Dipole moment (field-independent basis, Debye):
    X=            -24.4772    Y=             -5.1460    Z=             26.9863  Tot=             36.7950
 Quadrupole moment (field-independent basis, Debye-Ang):
   XX=             23.7332   YY=           -220.3091   ZZ=           -245.3772
   XY=           -124.7006   XZ=           -147.1773   YZ=             78.7948

 Normal termination of Gaussian 16 at Mon Jul  4 16:58:58 2022.
