 Gaussian 16, Revision C.01,
 Gaussian 16:  ES64L-G16RevC.01  3-Jul-2019

 ----------------------------------------------------------------------
 # B3LYP/6-31G* empiricaldispersion=gd3bj guess=read geom=check nosymm
 integral(ultrafinegrid)
 ----------------------------------------------------------------------

 ------------------------------------------------------
 Candidate Structure: Conf:205 Charge calc in gas phase
 ------------------------------------------------------
 Structure from the checkpoint file:  "conf-205.chk"
 Charge =  1 Multiplicity = 1

                          Input orientation:
 ---------------------------------------------------------------------
 Center     Atomic      Atomic             Coordinates (Angstroms)
 Number     Number       Type             X           Y           Z
 ---------------------------------------------------------------------
      1          7           0       -0.963171    2.397462   -1.056468
      2          1           0       -1.270975    3.277492   -1.472073
      3          1           0       -0.409414    1.784441   -1.806810
      4          1           0       -0.257611    2.628796   -0.334733
      5          6           0       -2.061866    1.646221   -0.384941
      6          1           0       -3.018493    1.978418   -0.797248
      7          6           0       -1.948743    1.952789    1.116695
      8          6           0       -1.875763    0.134560   -0.592990
      9          1           0       -2.699458   -0.406236   -0.119993
     10          1           0       -1.855479   -0.110310   -1.657232
     11          1           0       -0.940043   -0.200663   -0.134427
     12          8           0       -0.872070    2.350980    1.570487
     13          7           0       -3.021264    1.656453    1.865512
     14          1           0       -3.864949    1.323181    1.415648
     15          6           0       -2.951999    1.521270    3.325747
     16          1           0       -2.078455    2.099754    3.637563
     17          6           0       -2.704699    0.030788    3.656962
     18          6           0       -4.213430    2.059859    3.988642
     19          1           0       -4.145924    1.833386    5.059423
     20          1           0       -5.076778    1.478906    3.636889
     21          8           0       -3.489464   -0.635169    4.318953
     22          6           0       -4.429944    3.524922    3.750929
     23          6           0       -3.525557    4.458707    3.303971
     24          1           0       -2.491600    4.343164    3.008680
     25          6           0       -5.665452    4.230145    3.987881
     26          6           0       -5.441536    5.596186    3.664677
     27          6           0       -6.935027    3.836143    4.441940
     28          1           0       -7.131657    2.799562    4.702270
     29          7           0       -4.130270    5.702626    3.243911
     30          1           0       -3.666735    6.561826    2.994638
     31          6           0       -7.688129    6.144325    4.235118
     32          1           0       -8.488018    6.871024    4.341168
     33          6           0       -6.442656    6.564413    3.783627
     34          1           0       -6.255721    7.605457    3.535412
     35          6           0       -7.932989    4.794308    4.560056
     36          1           0       -8.918379    4.504024    4.911972
     37          7           0       -1.571452   -0.475462    3.100302
     38          1           0       -0.895222    0.120719    2.632154
     39          6           0       -1.204393   -1.868353    3.223738
     40          1           0       -1.282319   -2.190474    4.267966
     41          6           0        0.215870   -2.029084    2.708101
     42          6           0       -2.140976   -2.786296    2.374346
     43          1           0       -2.135245   -2.414502    1.340590
     44          1           0       -3.148387   -2.684989    2.782746
     45          8           0        0.746518   -1.206799    1.959188
     46          8           0       -1.769860   -4.148332    2.441242
     47          1           0       -1.123951   -4.314025    1.722939
     48          7           0        0.809045   -3.198848    3.075296
     49          1           0        0.162456   -3.895667    3.436567
     50          6           0        1.916682   -3.711850    2.286301
     51          1           0        2.753315   -3.009243    2.374278
     52          6           0        1.464788   -3.798628    0.811831
     53          6           0        2.346903   -5.095206    2.822372
     54          1           0        1.465063   -5.748257    2.753697
     55          8           0        0.343093   -4.215707    0.518020
     56          6           0        3.460073   -5.712065    1.966987
     57          1           0        4.346283   -5.063461    1.949921
     58          1           0        3.766874   -6.673938    2.388701
     59          1           0        3.143268   -5.886340    0.934488
     60          6           0        2.782745   -4.995728    4.289659
     61          1           0        3.669171   -4.356685    4.386532
     62          1           0        3.039307   -5.986887    4.676996
     63          1           0        1.999047   -4.575301    4.925452
     64          7           0        2.407080   -3.411780   -0.078910
     65          1           0        3.275545   -3.063090    0.305133
     66          6           0        2.315282   -3.255548   -1.537104
     67          1           0        2.926278   -4.037154   -2.009784
     68          6           0        3.047282   -1.929627   -1.795199
     69          6           0        0.899621   -3.322218   -2.104689
     70          1           0        0.942546   -3.141342   -3.183874
     71          1           0        0.240164   -2.586030   -1.637441
     72          1           0        0.461575   -4.303211   -1.930866
     73          8           0        4.238478   -1.814149   -1.415587
     74          7           0        2.376684   -0.920777   -2.337519
     75          1           0        1.376966   -0.976737   -2.520102
     76          6           0        2.872364    0.448890   -2.298128
     77          1           0        3.468147    0.556201   -1.386868
     78          6           0        1.663132    1.392989   -2.141038
     79          6           0        3.723910    0.837202   -3.531614
     80          1           0        4.202291   -0.062905   -3.937069
     81          1           0        3.060177    1.207477   -4.318386
     82          8           0        1.868620    2.538292   -1.724058
     83          6           0        4.779605    1.903068   -3.172939
     84          1           0        4.885111    2.627401   -3.986314
     85          1           0        4.433445    2.469500   -2.303160
     86          6           0        6.180197    1.326179   -2.927940
     87          1           0        6.812318    2.103233   -2.480309
     88          1           0        6.632408    1.028707   -3.883577
     89          7           0        6.150565    0.151250   -2.043484
     90          1           0        5.258719   -0.317757   -1.845905
     91          7           0        8.459436   -0.117220   -1.947367
     92          1           0        9.266411   -0.713732   -1.846281
     93          1           0        8.614507    0.834102   -2.242594
     94          7           0        7.042937   -1.816698   -1.237426
     95          1           0        7.791471   -2.287119   -0.751559
     96          1           0        6.091987   -2.175905   -1.154337
     97          6           0        7.215396   -0.584391   -1.740871
     98          8           0        0.529275    0.875315   -2.462903
 ---------------------------------------------------------------------

 SCF Done:  E(RB3LYP) =  -2360.27405883     A.U. after    2 cycles

 Alpha  occ. eigenvalues --  -19.24348 -19.22344 -19.21174 -19.20422 -19.20360
 Alpha  occ. eigenvalues --  -19.19797 -19.18543 -19.17916 -14.51282 -14.50103
 Alpha  occ. eigenvalues --  -14.49697 -14.49378 -14.46835 -14.46365 -14.46084
 Alpha  occ. eigenvalues --  -14.43605 -14.42841 -14.42796 -10.46643 -10.40452
 Alpha  occ. eigenvalues --  -10.39219 -10.38248 -10.36684 -10.36590 -10.35705
 Alpha  occ. eigenvalues --  -10.35347 -10.34854 -10.34320 -10.32019 -10.31738
 Alpha  occ. eigenvalues --  -10.31124 -10.30132 -10.29961 -10.29154 -10.28912
 Alpha  occ. eigenvalues --  -10.28421 -10.28094 -10.27381 -10.26997 -10.26450
 Alpha  occ. eigenvalues --  -10.25855 -10.25547 -10.24957 -10.23510 -10.23280
 Alpha  occ. eigenvalues --  -10.22904 -10.22852 -10.22717 -10.22252  -1.15780
 Alpha  occ. eigenvalues --   -1.15109  -1.14505  -1.13256  -1.12549  -1.11791
 Alpha  occ. eigenvalues --   -1.10425  -1.07933  -1.05872  -1.04462  -1.04137
 Alpha  occ. eigenvalues --   -1.03515  -1.02940  -1.02687  -1.02552  -1.02423
 Alpha  occ. eigenvalues --   -1.00896  -0.99270  -0.90734  -0.89415  -0.88670
 Alpha  occ. eigenvalues --   -0.88113  -0.87523  -0.85895  -0.84435  -0.83677
 Alpha  occ. eigenvalues --   -0.81470  -0.79109  -0.78899  -0.77919  -0.76907
 Alpha  occ. eigenvalues --   -0.76751  -0.76473  -0.75591  -0.75336  -0.73100
 Alpha  occ. eigenvalues --   -0.72503  -0.71909  -0.70946  -0.69261  -0.69084
 Alpha  occ. eigenvalues --   -0.68377  -0.67784  -0.66908  -0.66634  -0.66411
 Alpha  occ. eigenvalues --   -0.65830  -0.65521  -0.64445  -0.64278  -0.63885
 Alpha  occ. eigenvalues --   -0.63644  -0.63486  -0.62661  -0.61511  -0.60369
 Alpha  occ. eigenvalues --   -0.59778  -0.59415  -0.59197  -0.58885  -0.58534
 Alpha  occ. eigenvalues --   -0.58277  -0.57751  -0.57335  -0.57079  -0.56142
 Alpha  occ. eigenvalues --   -0.55604  -0.55303  -0.54960  -0.53935  -0.53792
 Alpha  occ. eigenvalues --   -0.53511  -0.53169  -0.52782  -0.52548  -0.52440
 Alpha  occ. eigenvalues --   -0.51616  -0.51501  -0.50953  -0.50788  -0.50355
 Alpha  occ. eigenvalues --   -0.50208  -0.49742  -0.49572  -0.49107  -0.49003
 Alpha  occ. eigenvalues --   -0.48815  -0.48583  -0.48170  -0.47928  -0.47700
 Alpha  occ. eigenvalues --   -0.47618  -0.47359  -0.47158  -0.46946  -0.46778
 Alpha  occ. eigenvalues --   -0.46564  -0.46536  -0.46132  -0.46029  -0.45919
 Alpha  occ. eigenvalues --   -0.45487  -0.45144  -0.44826  -0.44646  -0.43809
 Alpha  occ. eigenvalues --   -0.43599  -0.43101  -0.42224  -0.42129  -0.42000
 Alpha  occ. eigenvalues --   -0.41894  -0.41250  -0.39738  -0.39580  -0.39261
 Alpha  occ. eigenvalues --   -0.38836  -0.38001  -0.37721  -0.37568  -0.36899
 Alpha  occ. eigenvalues --   -0.36401  -0.36207  -0.35120  -0.35015  -0.34907
 Alpha  occ. eigenvalues --   -0.34364  -0.34143  -0.32940  -0.31882  -0.31842
 Alpha  occ. eigenvalues --   -0.31602  -0.31062  -0.26714  -0.24966
 Alpha virt. eigenvalues --   -0.10701  -0.10101  -0.08756  -0.07065  -0.06771
 Alpha virt. eigenvalues --   -0.05915  -0.05572  -0.04526  -0.04085  -0.03547
 Alpha virt. eigenvalues --   -0.03312  -0.01754  -0.01735  -0.01088  -0.00825

 Mulliken charges:
               1
     1  N   -0.781691
     2  H    0.381708
     3  H    0.455508
     4  H    0.411228
     5  C   -0.085018
     6  H    0.185109
     7  C    0.634901
     8  C   -0.479846
     9  H    0.173396
    10  H    0.192974
    11  H    0.201925
    12  O   -0.540757
    13  N   -0.568767
    14  H    0.345523
    15  C   -0.111000
    16  H    0.205812
    17  C    0.639128
    18  C   -0.349859
    19  H    0.190507
    20  H    0.156308
    21  O   -0.511441
    22  C    0.070283
    23  C   -0.015391
    24  H    0.155750
    25  C    0.071918
    26  C    0.317879
    27  C   -0.211516
    28  H    0.129527
    29  N   -0.704668
    30  H    0.328887
    31  C   -0.149770
    32  H    0.133432
    33  C   -0.162920
    34  H    0.127650
    35  C   -0.139641
    36  H    0.130947
    37  N   -0.656049
    38  H    0.368423
    39  C   -0.037809
    40  H    0.188952
    41  C    0.597209
    42  C   -0.052082
    43  H    0.130082
    44  H    0.190976
    45  O   -0.552539
    46  O   -0.649955
    47  H    0.436588
    48  N   -0.604537
    49  H    0.353869
    50  C   -0.034831
    51  H    0.154639
    52  C    0.655282
    53  C   -0.110879
    54  H    0.156708
    55  O   -0.561306
    56  C   -0.462063
    57  H    0.128727
    58  H    0.169956
    59  H    0.159677
    60  C   -0.445708
    61  H    0.145333
    62  H    0.163270
    63  H    0.165415
    64  N   -0.611853
    65  H    0.344188
    66  C    0.001731
    67  H    0.178801
    68  C    0.615011
    69  C   -0.482491
    70  H    0.160907
    71  H    0.177493
    72  H    0.208223
    73  O   -0.608174
    74  N   -0.591741
    75  H    0.381212
    76  C   -0.064039
    77  H    0.176675
    78  C    0.605576
    79  C   -0.294265
    80  H    0.152940
    81  H    0.183553
    82  O   -0.556002
    83  C   -0.301584
    84  H    0.174104
    85  H    0.203740
    86  C   -0.163600
    87  H    0.170495
    88  H    0.178445
    89  N   -0.645634
    90  H    0.431745
    91  N   -0.764793
    92  H    0.377624
    93  H    0.385392
    94  N   -0.789287
    95  H    0.364679
    96  H    0.412327
    97  C    0.811927
    98  O   -0.648690
 Sum of Mulliken charges =   1.00000

 Dipole moment (field-independent basis, Debye):
    X=             21.6641    Y=             -0.1891    Z=             -7.6921  Tot=             22.9900
 Quadrupole moment (field-independent basis, Debye-Ang):
   XX=            -79.2635   YY=           -235.3357   ZZ=           -271.4912
   XY=            -49.3821   XZ=            -31.9453   YZ=             -3.2979

 Normal termination of Gaussian 16 at Mon Jul  4 16:59:09 2022.
