 Gaussian 16, Revision C.01,
 Gaussian 16:  ES64L-G16RevC.01  3-Jul-2019

 ----------------------------------------------------------------------
 # B3LYP/6-31G* empiricaldispersion=gd3bj guess=read geom=check nosymm
 integral(ultrafinegrid)
 ----------------------------------------------------------------------

 ------------------------------------------------------
 Candidate Structure: Conf:746 Charge calc in gas phase
 ------------------------------------------------------
 Structure from the checkpoint file:  "conf-746.chk"
 Charge =  1 Multiplicity = 1

                          Input orientation:
 ---------------------------------------------------------------------
 Center     Atomic      Atomic             Coordinates (Angstroms)
 Number     Number       Type             X           Y           Z
 ---------------------------------------------------------------------
      1          7           0       -7.694272    4.645913    3.937064
      2          1           0       -7.654877    4.781379    4.967678
      3          1           0       -8.597543    4.973191    3.586462
      4          1           0       -6.903868    5.184826    3.510907
      5          6           0       -7.386210    3.218444    3.554587
      6          1           0       -7.728062    2.582035    4.371879
      7          6           0       -5.844299    3.240789    3.443606
      8          6           0       -8.046508    2.862141    2.226593
      9          1           0       -7.785754    1.835451    1.955390
     10          1           0       -9.137967    2.923687    2.293196
     11          1           0       -7.690799    3.521734    1.428637
     12          8           0       -5.321206    4.299242    3.077335
     13          7           0       -5.218288    2.116032    3.774697
     14          1           0       -5.714595    1.248051    3.978184
     15          6           0       -3.774998    1.964626    3.881692
     16          1           0       -3.295557    2.582580    3.118646
     17          6           0       -3.516557    0.463795    3.663231
     18          6           0       -3.270873    2.382852    5.297547
     19          1           0       -2.177948    2.312163    5.298502
     20          1           0       -3.636783    1.640751    6.016889
     21          8           0       -4.429080   -0.341828    3.871846
     22          6           0       -3.719552    3.757803    5.683789
     23          6           0       -3.064663    4.937702    5.429818
     24          1           0       -2.080493    5.102360    5.013742
     25          6           0       -5.004297    4.118275    6.228707
     26          6           0       -5.069933    5.545261    6.248813
     27          6           0       -6.115568    3.384631    6.676039
     28          1           0       -6.084735    2.299075    6.697837
     29          7           0       -3.869012    6.008628    5.763963
     30          1           0       -3.595652    6.977942    5.704868
     31          6           0       -7.305574    5.479515    7.091077
     32          1           0       -8.197539    5.985437    7.448328
     33          6           0       -6.209647    6.234793    6.672174
     34          1           0       -6.242155    7.320340    6.684538
     35          6           0       -7.256031    4.064618    7.100332
     36          1           0       -8.110862    3.505754    7.470001
     37          7           0       -2.269148    0.142951    3.304544
     38          1           0       -1.545698    0.844906    3.156216
     39          6           0       -1.788906   -1.212609    3.114189
     40          1           0       -2.104633   -1.846255    3.949394
     41          6           0       -0.263921   -1.108836    3.045896
     42          6           0       -2.347976   -1.824586    1.792995
     43          1           0       -2.114745   -1.132993    0.973245
     44          1           0       -3.433921   -1.890892    1.900838
     45          8           0        0.291967   -0.015556    2.941309
     46          8           0       -1.838476   -3.115573    1.544597
     47          1           0       -1.033442   -2.988911    0.987892
     48          7           0        0.387355   -2.301295    3.055181
     49          1           0       -0.226866   -3.092693    2.878896
     50          6           0        1.702503   -2.374862    2.433461
     51          1           0        2.307411   -1.570316    2.860117
     52          6           0        1.556040   -2.122473    0.917106
     53          6           0        2.389489   -3.729942    2.718038
     54          1           0        3.356971   -3.682232    2.200474
     55          8           0        0.490151   -2.345964    0.317737
     56          6           0        2.651539   -3.900967    4.218405
     57          1           0        1.711060   -3.932121    4.778444
     58          1           0        3.190907   -4.834644    4.411122
     59          1           0        3.249930   -3.073114    4.615528
     60          6           0        1.609440   -4.920733    2.142262
     61          1           0        0.649529   -5.064071    2.653501
     62          1           0        2.181682   -5.844397    2.276611
     63          1           0        1.404670   -4.797981    1.074741
     64          7           0        2.655322   -1.681908    0.303376
     65          1           0        3.523340   -1.488614    0.800430
     66          6           0        2.730847   -1.346397   -1.110106
     67          1           0        2.348314   -2.187116   -1.698990
     68          6           0        4.224455   -1.124525   -1.415518
     69          6           0        1.923288   -0.079536   -1.442652
     70          1           0        2.046248    0.194079   -2.494929
     71          1           0        2.277207    0.754935   -0.828035
     72          1           0        0.865288   -0.252077   -1.232268
     73          8           0        5.049852   -1.062851   -0.487014
     74          7           0        4.495507   -0.974891   -2.714367
     75          1           0        3.722304   -0.820358   -3.391798
     76          6           0        5.612658   -0.209450   -3.254492
     77          1           0        5.905068    0.564122   -2.532682
     78          6           0        5.050597    0.505880   -4.561230
     79          6           0        6.835182   -1.046481   -3.608127
     80          1           0        6.523506   -1.876643   -4.256751
     81          1           0        7.483766   -0.392107   -4.201303
     82          8           0        5.904066    1.118734   -5.221056
     83          6           0        7.571635   -1.591086   -2.384142
     84          1           0        7.845470   -0.757562   -1.723414
     85          1           0        6.914068   -2.247760   -1.803926
     86          6           0        8.831817   -2.342214   -2.794628
     87          1           0        9.502052   -1.674816   -3.351383
     88          1           0        8.581614   -3.201442   -3.428568
     89          7           0        9.537172   -2.839128   -1.592462
     90          1           0        9.159771   -2.540996   -0.700986
     91          7           0       11.258881   -3.855940   -2.753791
     92          1           0       11.917770   -4.617904   -2.819494
     93          1           0       10.927913   -3.453549   -3.618865
     94          7           0       11.110186   -4.127039   -0.459578
     95          1           0       12.077734   -4.412049   -0.404384
     96          1           0       10.640846   -3.959232    0.418822
     97          6           0       10.624823   -3.592851   -1.600119
     98          8           0        3.812770    0.335257   -4.746379
 ---------------------------------------------------------------------

 SCF Done:  E(RB3LYP) =  -2360.19332070     A.U. after    2 cycles

 Alpha  occ. eigenvalues --  -19.24238 -19.20181 -19.18556 -19.18538 -19.17123
 Alpha  occ. eigenvalues --  -19.14341 -19.05876 -19.04793 -14.57330 -14.51336
 Alpha  occ. eigenvalues --  -14.51280 -14.50813 -14.47746 -14.47583 -14.43941
 Alpha  occ. eigenvalues --  -14.41245 -14.40277 -14.35539 -10.47404 -10.41385
 Alpha  occ. eigenvalues --  -10.38656 -10.37319 -10.35003 -10.33685 -10.33272
 Alpha  occ. eigenvalues --  -10.32646 -10.32267 -10.31776 -10.31462 -10.30718
 Alpha  occ. eigenvalues --  -10.29653 -10.29565 -10.29286 -10.29242 -10.29102
 Alpha  occ. eigenvalues --  -10.29003 -10.28700 -10.28687 -10.28493 -10.27686
 Alpha  occ. eigenvalues --  -10.26420 -10.25454 -10.24717 -10.23781 -10.22828
 Alpha  occ. eigenvalues --  -10.22758 -10.21437 -10.20896 -10.20378  -1.16903
 Alpha  occ. eigenvalues --   -1.16025  -1.12351  -1.11511  -1.10471  -1.08508
 Alpha  occ. eigenvalues --   -1.07720  -1.06215  -1.05471  -1.04944  -1.04371
 Alpha  occ. eigenvalues --   -1.04319  -1.00545  -0.98950  -0.98552  -0.96826
 Alpha  occ. eigenvalues --   -0.94522  -0.93129  -0.91616  -0.90158  -0.89978
 Alpha  occ. eigenvalues --   -0.87254  -0.86712  -0.86099  -0.83981  -0.82676
 Alpha  occ. eigenvalues --   -0.81412  -0.81022  -0.79550  -0.79383  -0.77076
 Alpha  occ. eigenvalues --   -0.76136  -0.75407  -0.73915  -0.73861  -0.72509
 Alpha  occ. eigenvalues --   -0.71708  -0.71461  -0.71387  -0.70225  -0.69695
 Alpha  occ. eigenvalues --   -0.69388  -0.69192  -0.68488  -0.66688  -0.66044
 Alpha  occ. eigenvalues --   -0.64992  -0.64764  -0.64273  -0.63919  -0.63451
 Alpha  occ. eigenvalues --   -0.63179  -0.62713  -0.61858  -0.61072  -0.59971
 Alpha  occ. eigenvalues --   -0.59530  -0.58979  -0.58493  -0.57846  -0.57677
 Alpha  occ. eigenvalues --   -0.57377  -0.56806  -0.56419  -0.56365  -0.54835
 Alpha  occ. eigenvalues --   -0.54368  -0.54156  -0.53817  -0.53675  -0.53280
 Alpha  occ. eigenvalues --   -0.53072  -0.52641  -0.52023  -0.51849  -0.51598
 Alpha  occ. eigenvalues --   -0.51004  -0.50648  -0.50519  -0.49836  -0.49660
 Alpha  occ. eigenvalues --   -0.49322  -0.49006  -0.48614  -0.48488  -0.48365
 Alpha  occ. eigenvalues --   -0.48075  -0.47612  -0.47099  -0.46684  -0.46597
 Alpha  occ. eigenvalues --   -0.46263  -0.45859  -0.44920  -0.44809  -0.44605
 Alpha  occ. eigenvalues --   -0.44155  -0.44028  -0.43498  -0.43359  -0.43281
 Alpha  occ. eigenvalues --   -0.43093  -0.42468  -0.42283  -0.42025  -0.40806
 Alpha  occ. eigenvalues --   -0.39894  -0.39699  -0.39525  -0.39405  -0.39062
 Alpha  occ. eigenvalues --   -0.38976  -0.38464  -0.37976  -0.37781  -0.37706
 Alpha  occ. eigenvalues --   -0.37360  -0.37198  -0.36431  -0.35289  -0.35201
 Alpha  occ. eigenvalues --   -0.34469  -0.33295  -0.32954  -0.32920  -0.32311
 Alpha  occ. eigenvalues --   -0.31182  -0.30378  -0.30025  -0.29835  -0.28439
 Alpha  occ. eigenvalues --   -0.27197  -0.20977  -0.20779  -0.19109
 Alpha virt. eigenvalues --   -0.11780  -0.11231  -0.10751  -0.08290  -0.07576
 Alpha virt. eigenvalues --   -0.07459  -0.06341  -0.04601  -0.03397  -0.03245
 Alpha virt. eigenvalues --   -0.02723  -0.02626  -0.02276  -0.01962  -0.01569

 Mulliken charges:
               1
     1  N   -0.762100
     2  H    0.421018
     3  H    0.399949
     4  H    0.420350
     5  C   -0.102765
     6  H    0.203352
     7  C    0.668543
     8  C   -0.475905
     9  H    0.213658
    10  H    0.183958
    11  H    0.198215
    12  O   -0.541944
    13  N   -0.605301
    14  H    0.365390
    15  C   -0.060191
    16  H    0.192491
    17  C    0.640626
    18  C   -0.363172
    19  H    0.178394
    20  H    0.173459
    21  O   -0.549658
    22  C    0.080542
    23  C    0.035479
    24  H    0.180448
    25  C    0.062843
    26  C    0.328081
    27  C   -0.224615
    28  H    0.149483
    29  N   -0.682841
    30  H    0.347254
    31  C   -0.206566
    32  H    0.156952
    33  C   -0.171570
    34  H    0.156130
    35  C   -0.194069
    36  H    0.152787
    37  N   -0.626917
    38  H    0.361502
    39  C   -0.068748
    40  H    0.187188
    41  C    0.608463
    42  C   -0.038503
    43  H    0.148913
    44  H    0.171457
    45  O   -0.540632
    46  O   -0.652952
    47  H    0.445686
    48  N   -0.607380
    49  H    0.356044
    50  C   -0.070744
    51  H    0.176200
    52  C    0.664695
    53  C   -0.093224
    54  H    0.139789
    55  O   -0.591056
    56  C   -0.441327
    57  H    0.157171
    58  H    0.148582
    59  H    0.144927
    60  C   -0.475936
    61  H    0.152540
    62  H    0.153371
    63  H    0.173687
    64  N   -0.609164
    65  H    0.352326
    66  C   -0.036880
    67  H    0.176264
    68  C    0.594270
    69  C   -0.466599
    70  H    0.200388
    71  H    0.151173
    72  H    0.168016
    73  O   -0.590271
    74  N   -0.604051
    75  H    0.364939
    76  C   -0.081422
    77  H    0.139547
    78  C    0.587458
    79  C   -0.260700
    80  H    0.133437
    81  H    0.171984
    82  O   -0.584352
    83  C   -0.312151
    84  H    0.155517
    85  H    0.175476
    86  C   -0.150265
    87  H    0.183596
    88  H    0.182902
    89  N   -0.602443
    90  H    0.371198
    91  N   -0.756624
    92  H    0.382177
    93  H    0.399389
    94  N   -0.762320
    95  H    0.380225
    96  H    0.380781
    97  C    0.829022
    98  O   -0.614340
 Sum of Mulliken charges =   1.00000

 Dipole moment (field-independent basis, Debye):
    X=              2.2620    Y=              1.2220    Z=             24.7251  Tot=             24.8584
 Quadrupole moment (field-independent basis, Debye-Ang):
   XX=            308.1733   YY=           -135.9440   ZZ=           -265.3191
   XY=           -305.0740   XZ=           -104.9998   YZ=            118.3340

 Normal termination of Gaussian 16 at Mon Jul  4 16:58:43 2022.
