 Gaussian 16, Revision C.01,
 Gaussian 16:  ES64L-G16RevC.01  3-Jul-2019

 ----------------------------------------------------------------------
 # B3LYP/6-31G* empiricaldispersion=gd3bj guess=read geom=check nosymm
 integral(ultrafinegrid)
 ----------------------------------------------------------------------

 -----------------------------------------------------
 Candidate Structure: Conf:95 Charge calc in gas phase
 -----------------------------------------------------
 Structure from the checkpoint file:  "conf-95.chk"
 Charge =  1 Multiplicity = 1

                          Input orientation:
 ---------------------------------------------------------------------
 Center     Atomic      Atomic             Coordinates (Angstroms)
 Number     Number       Type             X           Y           Z
 ---------------------------------------------------------------------
      1          7           0       -2.113000   -2.423334    1.105417
      2          1           0       -1.387796   -2.737259    0.348064
      3          1           0       -2.540852   -3.209847    1.598426
      4          1           0       -1.530613   -1.920585    1.788449
      5          6           0       -3.142690   -1.501592    0.502002
      6          1           0       -2.624660   -1.017609   -0.328179
      7          6           0       -3.503688   -0.446764    1.565682
      8          6           0       -4.347745   -2.292534    0.029286
      9          1           0       -5.040402   -1.629098   -0.494391
     10          1           0       -4.045879   -3.088571   -0.658962
     11          1           0       -4.885197   -2.718258    0.881598
     12          8           0       -4.533582   -0.517945    2.224656
     13          7           0       -2.539579    0.492749    1.725015
     14          1           0       -1.789102    0.547382    1.040244
     15          6           0       -2.659919    1.557756    2.701116
     16          1           0       -3.727121    1.653420    2.928695
     17          6           0       -2.160482    2.848132    2.033320
     18          6           0       -1.901922    1.233573    4.025230
     19          1           0       -2.256690    1.912901    4.809524
     20          1           0       -0.835720    1.438896    3.887158
     21          8           0       -2.036557    2.912017    0.808472
     22          6           0       -2.078125   -0.188508    4.454152
     23          6           0       -3.127180   -0.729848    5.154052
     24          1           0       -3.992186   -0.244719    5.583091
     25          6           0       -1.226918   -1.288418    4.080095
     26          6           0       -1.834848   -2.481276    4.575021
     27          6           0       -0.027257   -1.389087    3.350663
     28          1           0        0.448111   -0.501557    2.946112
     29          7           0       -2.985201   -2.101501    5.231471
     30          1           0       -3.622030   -2.722469    5.706520
     31          6           0       -0.108323   -3.815286    3.604217
     32          1           0        0.339042   -4.784159    3.405241
     33          6           0       -1.288904   -3.747229    4.339895
     34          1           0       -1.764806   -4.646941    4.719599
     35          6           0        0.518395   -2.648617    3.120527
     36          1           0        1.439050   -2.739143    2.552550
     37          7           0       -1.828644    3.874477    2.850258
     38          1           0       -1.814734    3.773319    3.858496
     39          6           0       -1.179867    5.093364    2.361752
     40          1           0       -1.642814    5.369754    1.409510
     41          6           0        0.328737    4.806481    2.155307
     42          6           0       -1.367799    6.183641    3.417530
     43          1           0       -2.432365    6.403259    3.534544
     44          1           0       -0.853333    7.097036    3.095208
     45          8           0        1.195795    5.316349    2.870020
     46          8           0       -0.894134    5.725724    4.675414
     47          1           0        0.073165    5.661797    4.555952
     48          7           0        0.576900    3.901778    1.186467
     49          1           0       -0.208148    3.535288    0.644669
     50          6           0        1.846629    3.236569    0.976687
     51          1           0        2.663159    3.933620    1.193050
     52          6           0        1.823617    2.796735   -0.487682
     53          6           0        1.989066    1.960765    1.877738
     54          1           0        1.174381    1.287886    1.574318
     55          8           0        0.752962    2.525111   -1.034213
     56          6           0        3.320855    1.227056    1.661719
     57          1           0        4.173926    1.895697    1.839453
     58          1           0        3.408135    0.400846    2.375411
     59          1           0        3.409551    0.803079    0.659557
     60          6           0        1.832816    2.298760    3.365148
     61          1           0        2.617005    2.984564    3.700453
     62          1           0        1.900858    1.381050    3.960436
     63          1           0        0.873477    2.768878    3.584051
     64          7           0        3.005962    2.610437   -1.127120
     65          1           0        3.873935    2.768209   -0.633090
     66          6           0        3.055545    1.942689   -2.429723
     67          1           0        2.170823    2.286299   -2.976434
     68          6           0        2.921207    0.410356   -2.272689
     69          6           0        4.324598    2.328188   -3.178888
     70          1           0        4.334248    1.870894   -4.170343
     71          1           0        5.219239    1.987226   -2.646927
     72          1           0        4.369969    3.414246   -3.293907
     73          8           0        3.732309   -0.365813   -2.828376
     74          7           0        1.919759   -0.030778   -1.510193
     75          1           0        1.207518    0.613980   -1.158630
     76          6           0        1.671711   -1.439142   -1.252176
     77          1           0        1.639440   -1.978959   -2.204536
     78          6           0        0.292781   -1.581767   -0.572091
     79          6           0        2.742892   -2.075661   -0.321302
     80          1           0        3.702525   -1.564792   -0.461366
     81          1           0        2.452279   -1.878980    0.714718
     82          8           0       -0.191074   -2.755180   -0.607339
     83          6           0        2.888697   -3.592146   -0.561135
     84          1           0        3.057035   -4.114347    0.386292
     85          1           0        1.946621   -3.975714   -0.962648
     86          6           0        4.063181   -3.964749   -1.478164
     87          1           0        3.946779   -5.006452   -1.798811
     88          1           0        5.012252   -3.884744   -0.930991
     89          7           0        4.119892   -3.088177   -2.654693
     90          1           0        3.766154   -2.124684   -2.555058
     91          7           0        5.550872   -4.400529   -3.948075
     92          1           0        6.260126   -4.476067   -4.661061
     93          1           0        5.319100   -5.232177   -3.428111
     94          7           0        5.189881   -2.164907   -4.469042
     95          1           0        5.563437   -2.278125   -5.399364
     96          1           0        4.781133   -1.268905   -4.205216
     97          6           0        4.948029   -3.227658   -3.684430
     98          8           0       -0.187093   -0.572675   -0.006379
 ---------------------------------------------------------------------

 SCF Done:  E(RB3LYP) =  -2360.30560381     A.U. after    2 cycles

 Alpha  occ. eigenvalues --  -19.23589 -19.20835 -19.19979 -19.19201 -19.19020
 Alpha  occ. eigenvalues --  -19.18949 -19.18764 -19.18662 -14.51000 -14.49409
 Alpha  occ. eigenvalues --  -14.49244 -14.48789 -14.46034 -14.45774 -14.45239
 Alpha  occ. eigenvalues --  -14.43711 -14.42890 -14.42103 -10.46337 -10.39478
 Alpha  occ. eigenvalues --  -10.37941 -10.36649 -10.36441 -10.36125 -10.35608
 Alpha  occ. eigenvalues --  -10.34673 -10.33363 -10.32350 -10.31631 -10.31415
 Alpha  occ. eigenvalues --  -10.30885 -10.30131 -10.30032 -10.29492 -10.29390
 Alpha  occ. eigenvalues --  -10.29036 -10.28856 -10.27670 -10.27552 -10.27384
 Alpha  occ. eigenvalues --  -10.27360 -10.26861 -10.26830 -10.26634 -10.26596
 Alpha  occ. eigenvalues --  -10.26240 -10.25959 -10.25736 -10.24512  -1.15192
 Alpha  occ. eigenvalues --   -1.14442  -1.13262  -1.12308  -1.11775  -1.10883
 Alpha  occ. eigenvalues --   -1.10319  -1.07373  -1.05725  -1.04983  -1.04195
 Alpha  occ. eigenvalues --   -1.03449  -1.03167  -1.02582  -1.01453  -1.00216
 Alpha  occ. eigenvalues --   -0.99707  -0.99159  -0.92247  -0.90343  -0.88882
 Alpha  occ. eigenvalues --   -0.88360  -0.86683  -0.85494  -0.84434  -0.84231
 Alpha  occ. eigenvalues --   -0.82187  -0.81606  -0.79734  -0.79116  -0.78937
 Alpha  occ. eigenvalues --   -0.76757  -0.76310  -0.75448  -0.73873  -0.72374
 Alpha  occ. eigenvalues --   -0.72064  -0.71451  -0.70563  -0.70289  -0.68693
 Alpha  occ. eigenvalues --   -0.68158  -0.67671  -0.67355  -0.67174  -0.66114
 Alpha  occ. eigenvalues --   -0.65670  -0.65325  -0.64893  -0.64374  -0.64150
 Alpha  occ. eigenvalues --   -0.63253  -0.63074  -0.62853  -0.61996  -0.61279
 Alpha  occ. eigenvalues --   -0.59675  -0.59645  -0.58940  -0.58426  -0.58011
 Alpha  occ. eigenvalues --   -0.57435  -0.57054  -0.56896  -0.56410  -0.55845
 Alpha  occ. eigenvalues --   -0.55588  -0.55472  -0.55147  -0.54777  -0.54227
 Alpha  occ. eigenvalues --   -0.53963  -0.53270  -0.52812  -0.52421  -0.52355
 Alpha  occ. eigenvalues --   -0.51822  -0.51701  -0.51511  -0.51086  -0.50397
 Alpha  occ. eigenvalues --   -0.50292  -0.49846  -0.49439  -0.49315  -0.49143
 Alpha  occ. eigenvalues --   -0.48838  -0.48721  -0.48551  -0.47991  -0.47940
 Alpha  occ. eigenvalues --   -0.47584  -0.47414  -0.46973  -0.46921  -0.46520
 Alpha  occ. eigenvalues --   -0.46418  -0.46296  -0.45925  -0.45759  -0.45457
 Alpha  occ. eigenvalues --   -0.45342  -0.45034  -0.44927  -0.44655  -0.44059
 Alpha  occ. eigenvalues --   -0.44010  -0.43842  -0.43475  -0.42937  -0.42527
 Alpha  occ. eigenvalues --   -0.41719  -0.41558  -0.41513  -0.41224  -0.40792
 Alpha  occ. eigenvalues --   -0.39582  -0.38895  -0.38533  -0.36223  -0.35732
 Alpha  occ. eigenvalues --   -0.35284  -0.35227  -0.34350  -0.34282  -0.33804
 Alpha  occ. eigenvalues --   -0.33445  -0.33437  -0.32960  -0.32608  -0.32479
 Alpha  occ. eigenvalues --   -0.31994  -0.30890  -0.30486  -0.27959
 Alpha virt. eigenvalues --   -0.10488  -0.09594  -0.09555  -0.06844  -0.06786
 Alpha virt. eigenvalues --   -0.06490  -0.06164  -0.05774  -0.03957  -0.03733
 Alpha virt. eigenvalues --   -0.03326  -0.02751  -0.01597  -0.00970  -0.00817

 Mulliken charges:
               1
     1  N   -0.798003
     2  H    0.438160
     3  H    0.374363
     4  H    0.429249
     5  C   -0.075290
     6  H    0.209461
     7  C    0.593809
     8  C   -0.462127
     9  H    0.192472
    10  H    0.162561
    11  H    0.178832
    12  O   -0.514310
    13  N   -0.610737
    14  H    0.387995
    15  C   -0.033375
    16  H    0.207213
    17  C    0.617660
    18  C   -0.401641
    19  H    0.162466
    20  H    0.167512
    21  O   -0.536104
    22  C    0.081305
    23  C    0.038886
    24  H    0.174842
    25  C    0.041532
    26  C    0.319519
    27  C   -0.255727
    28  H    0.153806
    29  N   -0.685920
    30  H    0.342212
    31  C   -0.160159
    32  H    0.138478
    33  C   -0.184225
    34  H    0.145001
    35  C   -0.150161
    36  H    0.128377
    37  N   -0.610446
    38  H    0.359135
    39  C   -0.089197
    40  H    0.191243
    41  C    0.627359
    42  C   -0.054108
    43  H    0.163109
    44  H    0.159947
    45  O   -0.550722
    46  O   -0.638601
    47  H    0.420613
    48  N   -0.637506
    49  H    0.414513
    50  C   -0.043175
    51  H    0.171684
    52  C    0.621061
    53  C   -0.101657
    54  H    0.162766
    55  O   -0.532209
    56  C   -0.482609
    57  H    0.146798
    58  H    0.157690
    59  H    0.146687
    60  C   -0.457413
    61  H    0.169523
    62  H    0.147671
    63  H    0.159476
    64  N   -0.598258
    65  H    0.341329
    66  C   -0.061641
    67  H    0.215949
    68  C    0.634862
    69  C   -0.461907
    70  H    0.168353
    71  H    0.156909
    72  H    0.179066
    73  O   -0.603656
    74  N   -0.629607
    75  H    0.424592
    76  C   -0.024999
    77  H    0.168414
    78  C    0.602366
    79  C   -0.325754
    80  H    0.157851
    81  H    0.180913
    82  O   -0.616896
    83  C   -0.292336
    84  H    0.162463
    85  H    0.203111
    86  C   -0.159388
    87  H    0.161062
    88  H    0.179462
    89  N   -0.651237
    90  H    0.440656
    91  N   -0.764797
    92  H    0.377202
    93  H    0.382505
    94  N   -0.787627
    95  H    0.365168
    96  H    0.415640
    97  C    0.810156
    98  O   -0.589492
 Sum of Mulliken charges =   1.00000

 Dipole moment (field-independent basis, Debye):
    X=             14.4091    Y=            -13.0820    Z=             -6.1738  Tot=             20.4176
 Quadrupole moment (field-independent basis, Debye-Ang):
   XX=           -173.6959   YY=           -213.8277   ZZ=           -210.2816
   XY=            -38.9708   XZ=            -89.8583   YZ=             15.8272

 Normal termination of Gaussian 16 at Mon Jul  4 16:59:34 2022.
