 Gaussian 16, Revision C.01,
 Gaussian 16:  ES64L-G16RevC.01  3-Jul-2019

 ----------------------------------------------------------------------
 # B3LYP/6-31G* empiricaldispersion=gd3bj guess=read geom=check nosymm
 integral(ultrafinegrid)
 ----------------------------------------------------------------------

 ------------------------------------------------------
 Candidate Structure: Conf:797 Charge calc in gas phase
 ------------------------------------------------------
 Structure from the checkpoint file:  "conf-797.chk"
 Charge =  1 Multiplicity = 1

                          Input orientation:
 ---------------------------------------------------------------------
 Center     Atomic      Atomic             Coordinates (Angstroms)
 Number     Number       Type             X           Y           Z
 ---------------------------------------------------------------------
      1          7           0       -7.610448    3.220667    4.565225
      2          1           0       -7.537538    2.674201    5.449972
      3          1           0       -8.517742    3.688922    4.506385
      4          1           0       -6.816557    3.901313    4.589840
      5          6           0       -7.296958    2.353233    3.372012
      6          1           0       -7.669335    1.350381    3.590642
      7          6           0       -5.751026    2.374592    3.340225
      8          6           0       -7.916348    2.932531    2.103665
      9          1           0       -7.645785    2.307066    1.248858
     10          1           0       -9.009247    2.958511    2.168006
     11          1           0       -7.539303    3.942372    1.911760
     12          8           0       -5.169704    3.308737    3.905454
     13          7           0       -5.170999    1.367190    2.697925
     14          1           0       -5.709785    0.588770    2.317215
     15          6           0       -3.759821    1.032047    2.826561
     16          1           0       -3.146762    1.889443    2.537058
     17          6           0       -3.548938   -0.138914    1.855449
     18          6           0       -3.415212    0.606771    4.294707
     19          1           0       -3.254631    1.515415    4.880298
     20          1           0       -2.463183    0.066064    4.276793
     21          8           0       -4.508417   -0.840173    1.513987
     22          6           0       -4.516374   -0.207169    4.908859
     23          6           0       -4.874825   -1.497311    4.597042
     24          1           0       -4.395842   -2.205859    3.937842
     25          6           0       -5.537986    0.290816    5.799012
     26          6           0       -6.500446   -0.749269    5.967326
     27          6           0       -5.731143    1.503600    6.482920
     28          1           0       -4.998563    2.300882    6.405957
     29          7           0       -6.062560   -1.822089    5.224768
     30          1           0       -6.504605   -2.728447    5.190404
     31          6           0       -7.834316    0.633291    7.383170
     32          1           0       -8.708698    0.784071    8.008503
     33          6           0       -7.652209   -0.587991    6.745254
     34          1           0       -8.375166   -1.390617    6.856509
     35          6           0       -6.877422    1.668553    7.263362
     36          1           0       -7.007278    2.581267    7.840391
     37          7           0       -2.279873   -0.351619    1.485774
     38          1           0       -1.541278    0.309958    1.712290
     39          6           0       -1.880785   -1.334210    0.496071
     40          1           0       -2.243885   -2.328729    0.781767
     41          6           0       -0.350903   -1.280842    0.452379
     42          6           0       -2.432812   -0.969772   -0.913804
     43          1           0       -3.522419   -0.935007   -0.843426
     44          1           0       -2.171590   -1.776707   -1.617400
     45          8           0        0.260011   -0.359142    0.991961
     46          8           0       -1.986611    0.288525   -1.342570
     47          1           0       -1.065171    0.204456   -1.675219
     48          7           0        0.253533   -2.237163   -0.299968
     49          1           0       -0.346871   -2.865600   -0.821696
     50          6           0        1.583016   -1.994058   -0.884467
     51          1           0        2.120290   -1.362635   -0.173311
     52          6           0        1.354148   -1.196354   -2.185549
     53          6           0        2.359111   -3.296302   -1.115692
     54          1           0        1.823805   -3.869142   -1.884431
     55          8           0        1.472679   -1.698589   -3.291038
     56          6           0        3.762163   -2.981854   -1.662255
     57          1           0        4.339235   -2.383240   -0.948990
     58          1           0        4.296501   -3.927854   -1.836836
     59          1           0        3.684558   -2.420710   -2.597048
     60          6           0        2.449584   -4.123951    0.170786
     61          1           0        2.982684   -3.571035    0.953635
     62          1           0        2.992000   -5.058532   -0.010150
     63          1           0        1.459813   -4.378554    0.560356
     64          7           0        0.876185    0.094644   -1.982320
     65          1           0        1.108166    0.428265   -1.048462
     66          6           0        1.275860    1.077928   -2.998025
     67          1           0        0.918658    0.720241   -3.966076
     68          6           0        2.826822    1.109244   -3.016209
     69          6           0        0.675342    2.447540   -2.678608
     70          1           0        1.002840    3.189844   -3.411625
     71          1           0        1.007366    2.792260   -1.691811
     72          1           0       -0.418591    2.405269   -2.683266
     73          8           0        3.462437    0.462620   -2.163626
     74          7           0        3.350568    1.836711   -3.998628
     75          1           0        2.799956    2.534334   -4.541344
     76          6           0        4.732660    2.287244   -4.095868
     77          1           0        5.134331    2.459134   -3.090165
     78          6           0        4.678753    3.659711   -4.890434
     79          6           0        5.631924    1.295589   -4.836362
     80          1           0        5.279863    1.199651   -5.872593
     81          1           0        6.630570    1.742773   -4.875160
     82          8           0        5.787117    4.162267   -5.127427
     83          6           0        5.638911   -0.077088   -4.167924
     84          1           0        5.915039    0.017728   -3.112182
     85          1           0        4.619698   -0.480417   -4.184297
     86          6           0        6.561012   -1.084549   -4.841404
     87          1           0        7.612475   -0.790327   -4.741594
     88          1           0        6.320047   -1.186308   -5.907187
     89          7           0        6.371106   -2.390493   -4.172052
     90          1           0        5.547868   -2.462935   -3.582402
     91          7           0        8.143167   -3.482785   -5.188301
     92          1           0        8.921807   -4.115529   -5.074941
     93          1           0        8.267795   -2.708721   -5.824942
     94          7           0        7.002420   -4.504123   -3.449106
     95          1           0        7.315194   -5.419103   -3.741424
     96          1           0        6.278820   -4.477707   -2.743268
     97          6           0        7.158690   -3.445474   -4.273899
     98          8           0        3.507188    4.027586   -5.192945
 ---------------------------------------------------------------------

 SCF Done:  E(RB3LYP) =  -2360.17911847     A.U. after    1 cycles

 Alpha  occ. eigenvalues --  -19.25248 -19.21745 -19.21212 -19.20112 -19.18961
 Alpha  occ. eigenvalues --  -19.14212 -19.05573 -19.04356 -14.58058 -14.50665
 Alpha  occ. eigenvalues --  -14.50542 -14.50001 -14.48168 -14.48070 -14.45282
 Alpha  occ. eigenvalues --  -14.45252 -14.41346 -14.35935 -10.46625 -10.42149
 Alpha  occ. eigenvalues --  -10.39515 -10.38641 -10.38042 -10.35463 -10.34113
 Alpha  occ. eigenvalues --  -10.32544 -10.32478 -10.32147 -10.32087 -10.31795
 Alpha  occ. eigenvalues --  -10.31074 -10.30713 -10.30485 -10.29529 -10.29512
 Alpha  occ. eigenvalues --  -10.29459 -10.29185 -10.29111 -10.28972 -10.28220
 Alpha  occ. eigenvalues --  -10.27363 -10.27265 -10.26058 -10.24934 -10.24035
 Alpha  occ. eigenvalues --  -10.23448 -10.22419 -10.21235 -10.20761  -1.17775
 Alpha  occ. eigenvalues --   -1.15310  -1.13952  -1.13086  -1.12317  -1.10683
 Alpha  occ. eigenvalues --   -1.08108  -1.08076  -1.05434  -1.05121  -1.04212
 Alpha  occ. eigenvalues --   -1.03659  -1.02100  -1.01613  -0.98659  -0.97782
 Alpha  occ. eigenvalues --   -0.94572  -0.93178  -0.92382  -0.90333  -0.89845
 Alpha  occ. eigenvalues --   -0.88835  -0.87005  -0.86693  -0.84410  -0.83941
 Alpha  occ. eigenvalues --   -0.82202  -0.81698  -0.80040  -0.79278  -0.77983
 Alpha  occ. eigenvalues --   -0.76963  -0.76611  -0.76184  -0.73627  -0.73179
 Alpha  occ. eigenvalues --   -0.72745  -0.72443  -0.71182  -0.70987  -0.70477
 Alpha  occ. eigenvalues --   -0.69451  -0.69314  -0.68616  -0.67875  -0.66720
 Alpha  occ. eigenvalues --   -0.66540  -0.65734  -0.65123  -0.64398  -0.64004
 Alpha  occ. eigenvalues --   -0.63604  -0.63394  -0.62122  -0.61828  -0.61040
 Alpha  occ. eigenvalues --   -0.59300  -0.59175  -0.58801  -0.58242  -0.58002
 Alpha  occ. eigenvalues --   -0.57876  -0.57623  -0.57420  -0.56914  -0.56118
 Alpha  occ. eigenvalues --   -0.55988  -0.55610  -0.55141  -0.54450  -0.54279
 Alpha  occ. eigenvalues --   -0.53484  -0.53421  -0.53380  -0.52974  -0.52389
 Alpha  occ. eigenvalues --   -0.52324  -0.51889  -0.51723  -0.51371  -0.51056
 Alpha  occ. eigenvalues --   -0.50595  -0.50193  -0.50121  -0.48984  -0.48826
 Alpha  occ. eigenvalues --   -0.48729  -0.48420  -0.48263  -0.47715  -0.47217
 Alpha  occ. eigenvalues --   -0.46966  -0.46729  -0.46403  -0.46046  -0.45895
 Alpha  occ. eigenvalues --   -0.45701  -0.45231  -0.44942  -0.44109  -0.43637
 Alpha  occ. eigenvalues --   -0.43527  -0.42958  -0.42770  -0.42139  -0.41848
 Alpha  occ. eigenvalues --   -0.41723  -0.41435  -0.40984  -0.40705  -0.40087
 Alpha  occ. eigenvalues --   -0.39770  -0.39476  -0.38950  -0.38204  -0.38151
 Alpha  occ. eigenvalues --   -0.37823  -0.37202  -0.36612  -0.36127  -0.35940
 Alpha  occ. eigenvalues --   -0.35501  -0.35030  -0.34942  -0.33342  -0.33152
 Alpha  occ. eigenvalues --   -0.33000  -0.32842  -0.30767  -0.30487  -0.28324
 Alpha  occ. eigenvalues --   -0.27260  -0.20641  -0.20527  -0.18697
 Alpha virt. eigenvalues --   -0.11776  -0.11469  -0.10752  -0.09346  -0.08449
 Alpha virt. eigenvalues --   -0.07949  -0.07518  -0.07116  -0.04652  -0.04169
 Alpha virt. eigenvalues --   -0.03353  -0.02932  -0.02416  -0.02116  -0.01580

 Mulliken charges:
               1
     1  N   -0.753208
     2  H    0.410751
     3  H    0.402269
     4  H    0.418082
     5  C   -0.119086
     6  H    0.216754
     7  C    0.673062
     8  C   -0.472330
     9  H    0.214042
    10  H    0.186208
    11  H    0.198259
    12  O   -0.544889
    13  N   -0.608364
    14  H    0.369359
    15  C   -0.039921
    16  H    0.198423
    17  C    0.643810
    18  C   -0.381568
    19  H    0.187934
    20  H    0.184168
    21  O   -0.561678
    22  C    0.060056
    23  C    0.026328
    24  H    0.182695
    25  C    0.069778
    26  C    0.313884
    27  C   -0.244440
    28  H    0.168045
    29  N   -0.684793
    30  H    0.347273
    31  C   -0.149420
    32  H    0.155176
    33  C   -0.162035
    34  H    0.154289
    35  C   -0.230538
    36  H    0.154620
    37  N   -0.613888
    38  H    0.369254
    39  C   -0.055026
    40  H    0.170821
    41  C    0.607297
    42  C   -0.055726
    43  H    0.184844
    44  H    0.125007
    45  O   -0.530531
    46  O   -0.647555
    47  H    0.448924
    48  N   -0.605765
    49  H    0.337888
    50  C   -0.065824
    51  H    0.204587
    52  C    0.630706
    53  C   -0.089209
    54  H    0.144085
    55  O   -0.510336
    56  C   -0.496836
    57  H    0.174918
    58  H    0.104309
    59  H    0.198186
    60  C   -0.446565
    61  H    0.154850
    62  H    0.143116
    63  H    0.152645
    64  N   -0.644616
    65  H    0.355379
    66  C   -0.069196
    67  H    0.189765
    68  C    0.623579
    69  C   -0.483046
    70  H    0.207964
    71  H    0.153572
    72  H    0.164467
    73  O   -0.598281
    74  N   -0.609592
    75  H    0.364473
    76  C   -0.079231
    77  H    0.143715
    78  C    0.588695
    79  C   -0.259225
    80  H    0.137995
    81  H    0.166451
    82  O   -0.585487
    83  C   -0.315263
    84  H    0.168541
    85  H    0.170581
    86  C   -0.149368
    87  H    0.177811
    88  H    0.182852
    89  N   -0.614493
    90  H    0.389594
    91  N   -0.754658
    92  H    0.380368
    93  H    0.395645
    94  N   -0.772343
    95  H    0.375939
    96  H    0.387779
    97  C    0.811963
    98  O   -0.619501
 Sum of Mulliken charges =   1.00000

 Dipole moment (field-independent basis, Debye):
    X=            -17.1126    Y=            -19.6374    Z=             16.0904  Tot=             30.6165
 Quadrupole moment (field-independent basis, Debye-Ang):
   XX=             74.3652   YY=           -240.6791   ZZ=           -216.4060
   XY=           -212.5491   XZ=           -182.6476   YZ=            142.0543

 Normal termination of Gaussian 16 at Mon Jul  4 16:58:29 2022.
