 Gaussian 16, Revision C.01,
 Gaussian 16:  ES64L-G16RevC.01  3-Jul-2019

 ----------------------------------------------------------------------
 # B3LYP/6-31G* empiricaldispersion=gd3bj guess=read geom=check nosymm
 integral(ultrafinegrid)
 ----------------------------------------------------------------------

 ------------------------------------------------------
 Candidate Structure: Conf:962 Charge calc in gas phase
 ------------------------------------------------------
 Structure from the checkpoint file:  "conf-962.chk"
 Charge =  1 Multiplicity = 1

                          Input orientation:
 ---------------------------------------------------------------------
 Center     Atomic      Atomic             Coordinates (Angstroms)
 Number     Number       Type             X           Y           Z
 ---------------------------------------------------------------------
      1          7           0       -9.232410    2.504093    0.917964
      2          1           0       -9.478589    2.329541    1.913375
      3          1           0      -10.067014    2.396036    0.337210
      4          1           0       -8.841234    3.474469    0.848117
      5          6           0       -8.076808    1.640317    0.474089
      6          1           0       -8.125185    0.712041    1.044857
      7          6           0       -6.859243    2.505096    0.875860
      8          6           0       -8.130832    1.400024   -1.030943
      9          1           0       -7.267528    0.801054   -1.333536
     10          1           0       -9.035849    0.853574   -1.317416
     11          1           0       -8.088451    2.348922   -1.575137
     12          8           0       -7.008129    3.732908    0.841212
     13          7           0       -5.770142    1.842691    1.245018
     14          1           0       -5.679218    0.828770    1.157364
     15          6           0       -4.564147    2.446785    1.790817
     16          1           0       -4.395136    3.410144    1.304035
     17          6           0       -3.445268    1.433296    1.484351
     18          6           0       -4.684823    2.640499    3.333306
     19          1           0       -3.783096    3.158746    3.675980
     20          1           0       -4.674458    1.647112    3.797167
     21          8           0       -3.747688    0.248622    1.292715
     22          6           0       -5.918584    3.391909    3.726236
     23          6           0       -6.048294    4.753001    3.850620
     24          1           0       -5.291384    5.523156    3.798661
     25          6           0       -7.244930    2.846019    3.868470
     26          6           0       -8.138970    3.945924    4.048418
     27          6           0       -7.773139    1.544975    3.835022
     28          1           0       -7.114827    0.688070    3.724821
     29          7           0       -7.374249    5.088917    4.040822
     30          1           0       -7.717308    6.024496    4.197596
     31          6           0      -10.019089    2.471574    4.108430
     32          1           0      -11.085956    2.302508    4.220205
     33          6           0       -9.521016    3.773732    4.165628
     34          1           0      -10.186780    4.620496    4.305111
     35          6           0       -9.150561    1.364493    3.951816
     36          1           0       -9.564921    0.360421    3.950861
     37          7           0       -2.210074    1.929102    1.513579
     38          1           0       -2.027930    2.921504    1.650202
     39          6           0       -0.997706    1.167790    1.261380
     40          1           0       -0.985987    0.265386    1.883554
     41          6           0        0.147489    2.119320    1.639022
     42          6           0       -0.868834    0.764166   -0.230312
     43          1           0       -1.802794    0.273330   -0.519069
     44          1           0       -0.056802    0.033867   -0.325357
     45          8           0       -0.082611    3.292891    1.936570
     46          8           0       -0.691177    1.890388   -1.059146
     47          1           0        0.264144    2.103246   -1.057792
     48          7           0        1.387907    1.588370    1.563959
     49          1           0        1.494470    0.641662    1.191361
     50          6           0        2.547344    2.460045    1.435988
     51          1           0        2.172569    3.478416    1.585770
     52          6           0        2.994071    2.371848   -0.039139
     53          6           0        3.609534    2.165309    2.517546
     54          1           0        4.460400    2.838971    2.332513
     55          8           0        2.153102    2.235319   -0.935828
     56          6           0        3.046711    2.522326    3.898907
     57          1           0        2.181713    1.892431    4.130688
     58          1           0        3.802332    2.364318    4.675629
     59          1           0        2.722112    3.567420    3.941605
     60          6           0        4.101997    0.710869    2.490586
     61          1           0        3.276081    0.022171    2.694594
     62          1           0        4.869455    0.557010    3.256688
     63          1           0        4.521800    0.427765    1.521515
     64          7           0        4.316420    2.405775   -0.320970
     65          1           0        4.969386    2.387548    0.449653
     66          6           0        4.839831    1.984348   -1.626902
     67          1           0        4.077613    2.265550   -2.359020
     68          6           0        5.001790    0.435149   -1.669945
     69          6           0        6.158161    2.682691   -1.930258
     70          1           0        6.549528    2.334264   -2.887425
     71          1           0        6.911565    2.447695   -1.170026
     72          1           0        6.014073    3.766129   -1.966617
     73          8           0        6.013845   -0.091735   -2.125292
     74          7           0        3.955871   -0.241060   -1.141992
     75          1           0        3.109478    0.250128   -0.879174
     76          6           0        3.870862   -1.671894   -0.914427
     77          1           0        3.891014   -2.207143   -1.873588
     78          6           0        2.498402   -1.929029   -0.226678
     79          6           0        5.063009   -2.174640   -0.056618
     80          1           0        5.944598   -1.638246   -0.411750
     81          1           0        4.905423   -1.889387    0.991310
     82          8           0        2.054981   -3.117523   -0.230830
     83          6           0        5.342882   -3.680436   -0.181485
     84          1           0        5.136854   -3.987988   -1.213914
     85          1           0        6.409678   -3.872245   -0.016010
     86          6           0        4.525346   -4.561455    0.778441
     87          1           0        3.522246   -4.160376    0.922495
     88          1           0        4.998853   -4.623894    1.761509
     89          7           0        4.387169   -5.944770    0.290480
     90          1           0        5.181679   -6.555906    0.428506
     91          7           0        2.718755   -5.403612   -1.238648
     92          1           0        2.038645   -5.739007   -1.907294
     93          1           0        2.559854   -4.395500   -0.869046
     94          7           0        3.675120   -7.531868   -1.237278
     95          1           0        2.975879   -7.845157   -1.895182
     96          1           0        4.061197   -8.259703   -0.652283
     97          6           0        3.570288   -6.272328   -0.725634
     98          8           0        1.934803   -0.950053    0.310048
 ---------------------------------------------------------------------

 SCF Done:  E(RB3LYP) =  -2360.25773917     A.U. after    1 cycles

 Alpha  occ. eigenvalues --  -19.23627 -19.18861 -19.17777 -19.17110 -19.15960
 Alpha  occ. eigenvalues --  -19.15198 -19.14978 -19.14593 -14.56851 -14.47459
 Alpha  occ. eigenvalues --  -14.47301 -14.46906 -14.46831 -14.44532 -14.42257
 Alpha  occ. eigenvalues --  -14.42052 -14.40060 -14.38760 -10.42774 -10.40743
 Alpha  occ. eigenvalues --  -10.38174 -10.35911 -10.34702 -10.33838 -10.32750
 Alpha  occ. eigenvalues --  -10.32333 -10.32265 -10.31842 -10.31403 -10.30959
 Alpha  occ. eigenvalues --  -10.29633 -10.29265 -10.28916 -10.28828 -10.28624
 Alpha  occ. eigenvalues --  -10.28310 -10.28239 -10.28210 -10.28013 -10.27886
 Alpha  occ. eigenvalues --  -10.27153 -10.26807 -10.26191 -10.25155 -10.25146
 Alpha  occ. eigenvalues --  -10.23615 -10.22342 -10.22259 -10.22145  -1.16300
 Alpha  occ. eigenvalues --   -1.11441  -1.11257  -1.10704  -1.09988  -1.08789
 Alpha  occ. eigenvalues --   -1.08206  -1.07262  -1.06811  -1.03840  -1.03555
 Alpha  occ. eigenvalues --   -1.01002  -0.99929  -0.98953  -0.98598  -0.98410
 Alpha  occ. eigenvalues --   -0.97387  -0.95453  -0.94110  -0.91053  -0.89441
 Alpha  occ. eigenvalues --   -0.86164  -0.85710  -0.85499  -0.83542  -0.81923
 Alpha  occ. eigenvalues --   -0.81812  -0.80433  -0.79622  -0.78881  -0.75875
 Alpha  occ. eigenvalues --   -0.74927  -0.74777  -0.73414  -0.72084  -0.72000
 Alpha  occ. eigenvalues --   -0.71166  -0.70301  -0.69795  -0.69056  -0.68856
 Alpha  occ. eigenvalues --   -0.68650  -0.68338  -0.66436  -0.65989  -0.65360
 Alpha  occ. eigenvalues --   -0.65242  -0.65039  -0.63909  -0.63145  -0.62578
 Alpha  occ. eigenvalues --   -0.62286  -0.61311  -0.60576  -0.60474  -0.59932
 Alpha  occ. eigenvalues --   -0.59212  -0.58438  -0.58427  -0.57194  -0.56736
 Alpha  occ. eigenvalues --   -0.56126  -0.55735  -0.55113  -0.54906  -0.54269
 Alpha  occ. eigenvalues --   -0.54041  -0.53291  -0.53226  -0.52985  -0.52809
 Alpha  occ. eigenvalues --   -0.52634  -0.52479  -0.52137  -0.51959  -0.51518
 Alpha  occ. eigenvalues --   -0.51161  -0.50921  -0.50593  -0.50216  -0.49865
 Alpha  occ. eigenvalues --   -0.49421  -0.49079  -0.48725  -0.48425  -0.48321
 Alpha  occ. eigenvalues --   -0.47905  -0.47501  -0.47380  -0.46835  -0.46675
 Alpha  occ. eigenvalues --   -0.46197  -0.45619  -0.45348  -0.44885  -0.44774
 Alpha  occ. eigenvalues --   -0.44323  -0.44145  -0.43889  -0.43634  -0.43500
 Alpha  occ. eigenvalues --   -0.43120  -0.42877  -0.42741  -0.42527  -0.42173
 Alpha  occ. eigenvalues --   -0.41924  -0.41518  -0.41413  -0.40739  -0.39545
 Alpha  occ. eigenvalues --   -0.39421  -0.38963  -0.38526  -0.38447  -0.38178
 Alpha  occ. eigenvalues --   -0.37590  -0.37392  -0.36601  -0.35715  -0.35161
 Alpha  occ. eigenvalues --   -0.33337  -0.33225  -0.32784  -0.32494  -0.31661
 Alpha  occ. eigenvalues --   -0.31382  -0.30706  -0.30206  -0.29947  -0.29530
 Alpha  occ. eigenvalues --   -0.29198  -0.28775  -0.28357  -0.27619
 Alpha virt. eigenvalues --   -0.11356  -0.10162  -0.07890  -0.07191  -0.07018
 Alpha virt. eigenvalues --   -0.05214  -0.05038  -0.04491  -0.02774  -0.02128
 Alpha virt. eigenvalues --   -0.01708  -0.01498  -0.01120  -0.00295  -0.00148

 Mulliken charges:
               1
     1  N   -0.762615
     2  H    0.420493
     3  H    0.397913
     4  H    0.419670
     5  C   -0.101953
     6  H    0.201860
     7  C    0.669100
     8  C   -0.475512
     9  H    0.214212
    10  H    0.180725
    11  H    0.197206
    12  O   -0.545266
    13  N   -0.604438
    14  H    0.364253
    15  C   -0.060456
    16  H    0.192769
    17  C    0.644516
    18  C   -0.362268
    19  H    0.179494
    20  H    0.171407
    21  O   -0.561192
    22  C    0.081896
    23  C    0.034714
    24  H    0.179592
    25  C    0.062385
    26  C    0.328727
    27  C   -0.223915
    28  H    0.149775
    29  N   -0.683496
    30  H    0.345755
    31  C   -0.206021
    32  H    0.154604
    33  C   -0.171526
    34  H    0.154122
    35  C   -0.195492
    36  H    0.150178
    37  N   -0.610527
    38  H    0.363625
    39  C   -0.059195
    40  H    0.180736
    41  C    0.603835
    42  C   -0.083187
    43  H    0.158682
    44  H    0.181576
    45  O   -0.544378
    46  O   -0.657355
    47  H    0.441258
    48  N   -0.638030
    49  H    0.418196
    50  C   -0.072285
    51  H    0.207001
    52  C    0.609628
    53  C   -0.106950
    54  H    0.124613
    55  O   -0.548344
    56  C   -0.445966
    57  H    0.158784
    58  H    0.147437
    59  H    0.154422
    60  C   -0.473601
    61  H    0.168789
    62  H    0.146780
    63  H    0.151227
    64  N   -0.583705
    65  H    0.340656
    66  C   -0.077024
    67  H    0.204307
    68  C    0.609661
    69  C   -0.448594
    70  H    0.185445
    71  H    0.148828
    72  H    0.155936
    73  O   -0.531546
    74  N   -0.653209
    75  H    0.383671
    76  C   -0.005906
    77  H    0.147784
    78  C    0.591344
    79  C   -0.300172
    80  H    0.194830
    81  H    0.147393
    82  O   -0.612013
    83  C   -0.277611
    84  H    0.153858
    85  H    0.148332
    86  C   -0.199508
    87  H    0.225430
    88  H    0.169724
    89  N   -0.586906
    90  H    0.347062
    91  N   -0.780366
    92  H    0.347360
    93  H    0.456960
    94  N   -0.762374
    95  H    0.362391
    96  H    0.362912
    97  C    0.782467
    98  O   -0.565405
 Sum of Mulliken charges =   1.00000

 Dipole moment (field-independent basis, Debye):
    X=            -21.9779    Y=             -5.6902    Z=              6.5268  Tot=             23.6222
 Quadrupole moment (field-independent basis, Debye-Ang):
   XX=             55.3362   YY=           -114.4153   ZZ=           -266.6211
   XY=           -140.7148   XZ=            -29.8506   YZ=             45.1479

 Normal termination of Gaussian 16 at Mon Jul  4 16:58:39 2022.
