 Gaussian 16, Revision C.01,
 Gaussian 16:  ES64L-G16RevC.01  3-Jul-2019

 ----------------------------------------------------------------------
 # B3LYP/6-31G* empiricaldispersion=gd3bj guess=read geom=check nosymm
 integral(ultrafinegrid)
 ----------------------------------------------------------------------

 ------------------------------------------------------
 Candidate Structure: Conf:234 Charge calc in gas phase
 ------------------------------------------------------
 Structure from the checkpoint file:  "conf-234.chk"
 Charge =  1 Multiplicity = 1

                          Input orientation:
 ---------------------------------------------------------------------
 Center     Atomic      Atomic             Coordinates (Angstroms)
 Number     Number       Type             X           Y           Z
 ---------------------------------------------------------------------
      1          7           0       -4.899950    4.865026    6.258478
      2          1           0       -4.654178    4.810910    7.250113
      3          1           0       -5.691529    5.504947    6.151469
      4          1           0       -4.051039    5.207621    5.693231
      5          6           0       -5.136813    3.511651    5.618390
      6          1           0       -5.092647    2.755082    6.404837
      7          6           0       -3.917760    3.382569    4.662034
      8          6           0       -6.475556    3.475182    4.886325
      9          1           0       -6.606435    2.503625    4.402593
     10          1           0       -7.311215    3.616097    5.578908
     11          1           0       -6.514968    4.242032    4.105227
     12          8           0       -3.177436    4.376385    4.553764
     13          7           0       -3.776346    2.229100    4.035945
     14          1           0       -4.487669    1.493808    4.062984
     15          6           0       -2.758798    1.965686    3.018690
     16          1           0       -2.752476    2.799024    2.308174
     17          6           0       -3.277764    0.708301    2.294595
     18          6           0       -1.328638    1.834183    3.617552
     19          1           0       -1.233852    0.868794    4.127177
     20          1           0       -1.236651    2.616935    4.379585
     21          8           0       -4.379127    0.228669    2.588776
     22          6           0       -0.269761    2.004101    2.571549
     23          6           0        0.672289    1.081157    2.165857
     24          1           0        0.836273    0.071290    2.508192
     25          6           0       -0.066495    3.184337    1.763130
     26          6           0        1.005941    2.896628    0.872866
     27          6           0       -0.680156    4.449474    1.712809
     28          1           0       -1.469046    4.711438    2.413724
     29          7           0        1.433768    1.604874    1.148488
     30          1           0        2.153467    1.092076    0.645722
     31          6           0        0.818722    5.057749   -0.109551
     32          1           0        1.160988    5.786233   -0.837665
     33          6           0        1.456742    3.824042   -0.071066
     34          1           0        2.258814    3.627530   -0.772744
     35          6           0       -0.232193    5.371956    0.774851
     36          1           0       -0.691645    6.355319    0.727326
     37          7           0       -2.472220    0.219678    1.337974
     38          1           0       -1.501631    0.536630    1.324788
     39          6           0       -2.774585   -1.007184    0.616520
     40          1           0       -3.289591   -1.708109    1.285212
     41          6           0       -1.419516   -1.606875    0.207561
     42          6           0       -3.713085   -0.698721   -0.557658
     43          1           0       -3.203748   -0.032012   -1.268122
     44          1           0       -4.595208   -0.185470   -0.158817
     45          8           0       -0.400277   -1.302518    0.838825
     46          8           0       -4.074786   -1.939265   -1.167323
     47          1           0       -4.703949   -1.761915   -1.882895
     48          7           0       -1.385442   -2.406263   -0.871085
     49          1           0       -2.252993   -2.559371   -1.379497
     50          6           0       -0.123144   -2.973232   -1.347402
     51          1           0        0.506295   -3.081178   -0.455019
     52          6           0        0.613690   -1.967148   -2.273097
     53          6           0       -0.325278   -4.362236   -1.991222
     54          1           0       -0.708641   -4.212750   -3.008873
     55          8           0        1.207020   -2.337044   -3.298978
     56          6           0        1.011232   -5.113244   -2.088921
     57          1           0        1.438306   -5.275030   -1.091279
     58          1           0        0.859662   -6.094911   -2.549561
     59          1           0        1.730319   -4.556904   -2.691772
     60          6           0       -1.328543   -5.209051   -1.193915
     61          1           0       -1.003435   -5.322932   -0.152690
     62          1           0       -1.400435   -6.209315   -1.632961
     63          1           0       -2.335054   -4.780934   -1.182086
     64          7           0        0.549255   -0.683053   -1.872132
     65          1           0        0.329815   -0.530874   -0.891325
     66          6           0        1.213114    0.417281   -2.555454
     67          1           0        1.432028    0.067068   -3.568226
     68          6           0        2.563713    0.705983   -1.861240
     69          6           0        0.279869    1.633127   -2.610173
     70          1           0        0.746992    2.479357   -3.120349
     71          1           0        0.017995    1.968214   -1.601854
     72          1           0       -0.636637    1.370487   -3.147068
     73          8           0        2.954343   -0.056405   -0.942853
     74          7           0        3.256222    1.734096   -2.335539
     75          1           0        2.823318    2.527903   -2.852870
     76          6           0        4.508017    2.268019   -1.788304
     77          1           0        4.516153    2.112160   -0.703357
     78          6           0        4.473862    3.816925   -2.101082
     79          6           0        5.756468    1.604417   -2.401359
     80          1           0        5.893788    1.958361   -3.431076
     81          1           0        6.624085    1.941629   -1.828087
     82          8           0        5.496023    4.437648   -1.796670
     83          6           0        5.565606    0.090528   -2.389138
     84          1           0        5.346357   -0.225233   -1.364762
     85          1           0        4.673756   -0.082671   -2.991599
     86          6           0        6.666424   -0.778187   -2.960980
     87          1           0        7.546173   -0.803184   -2.310673
     88          1           0        6.983758   -0.404718   -3.942448
     89          7           0        6.233266   -2.194162   -3.150555
     90          1           0        6.963879   -2.806935   -3.491581
     91          7           0        3.937773   -2.329454   -2.530734
     92          1           0        2.999964   -2.510030   -2.907759
     93          1           0        3.958507   -1.574541   -1.845049
     94          7           0        4.876203   -3.876627   -3.940470
     95          1           0        4.012974   -4.398930   -3.878813
     96          1           0        5.424176   -3.999594   -4.779611
     97          6           0        5.007963   -2.743683   -3.201580
     98          8           0        3.384930    4.200416   -2.636479
 ---------------------------------------------------------------------

 SCF Done:  E(RB3LYP) =  -2360.20569667     A.U. after    2 cycles

 Alpha  occ. eigenvalues --  -19.27312 -19.25576 -19.22301 -19.20953 -19.20404
 Alpha  occ. eigenvalues --  -19.17864 -19.08746 -19.07310 -14.60156 -14.49423
 Alpha  occ. eigenvalues --  -14.48121 -14.47951 -14.45586 -14.45358 -14.44846
 Alpha  occ. eigenvalues --  -14.43348 -14.42560 -14.39787 -10.43988 -10.43741
 Alpha  occ. eigenvalues --  -10.41541 -10.39032 -10.38166 -10.37282 -10.34508
 Alpha  occ. eigenvalues --  -10.34206 -10.33885 -10.33333 -10.32999 -10.31518
 Alpha  occ. eigenvalues --  -10.31484 -10.30012 -10.28184 -10.27582 -10.27383
 Alpha  occ. eigenvalues --  -10.26444 -10.26385 -10.24953 -10.24807 -10.24789
 Alpha  occ. eigenvalues --  -10.24454 -10.24373 -10.24223 -10.23508 -10.23273
 Alpha  occ. eigenvalues --  -10.22726 -10.22524 -10.22030 -10.21970  -1.19716
 Alpha  occ. eigenvalues --   -1.14480  -1.13920  -1.13371  -1.12422  -1.12163
 Alpha  occ. eigenvalues --   -1.11704  -1.08943  -1.06265  -1.02793  -1.02394
 Alpha  occ. eigenvalues --   -1.01759  -1.01726  -1.01590  -0.99975  -0.99613
 Alpha  occ. eigenvalues --   -0.96576  -0.93805  -0.92867  -0.89659  -0.88615
 Alpha  occ. eigenvalues --   -0.87915  -0.86544  -0.85477  -0.84230  -0.83503
 Alpha  occ. eigenvalues --   -0.81211  -0.79965  -0.78734  -0.78022  -0.77597
 Alpha  occ. eigenvalues --   -0.75872  -0.75310  -0.75241  -0.74744  -0.74355
 Alpha  occ. eigenvalues --   -0.72824  -0.72513  -0.71349  -0.70511  -0.69017
 Alpha  occ. eigenvalues --   -0.68429  -0.67398  -0.67155  -0.66923  -0.66644
 Alpha  occ. eigenvalues --   -0.66032  -0.65374  -0.64478  -0.64071  -0.63706
 Alpha  occ. eigenvalues --   -0.63116  -0.61964  -0.61439  -0.61072  -0.60811
 Alpha  occ. eigenvalues --   -0.60260  -0.59873  -0.59277  -0.58423  -0.58316
 Alpha  occ. eigenvalues --   -0.57475  -0.57213  -0.56759  -0.56594  -0.55898
 Alpha  occ. eigenvalues --   -0.55679  -0.55621  -0.54635  -0.54502  -0.53686
 Alpha  occ. eigenvalues --   -0.53299  -0.53247  -0.52613  -0.52416  -0.52167
 Alpha  occ. eigenvalues --   -0.51873  -0.51625  -0.51480  -0.51072  -0.50556
 Alpha  occ. eigenvalues --   -0.50099  -0.50052  -0.49707  -0.49065  -0.48763
 Alpha  occ. eigenvalues --   -0.48462  -0.48009  -0.47651  -0.47337  -0.47081
 Alpha  occ. eigenvalues --   -0.46693  -0.46199  -0.45997  -0.45857  -0.45732
 Alpha  occ. eigenvalues --   -0.45562  -0.45190  -0.44953  -0.44787  -0.44270
 Alpha  occ. eigenvalues --   -0.43958  -0.43071  -0.42903  -0.42033  -0.41836
 Alpha  occ. eigenvalues --   -0.41507  -0.41369  -0.40733  -0.40608  -0.40224
 Alpha  occ. eigenvalues --   -0.39780  -0.39292  -0.38537  -0.38361  -0.38030
 Alpha  occ. eigenvalues --   -0.37904  -0.37703  -0.37586  -0.36771  -0.36416
 Alpha  occ. eigenvalues --   -0.36286  -0.35780  -0.35723  -0.34902  -0.34079
 Alpha  occ. eigenvalues --   -0.32412  -0.32183  -0.31624  -0.31042  -0.26989
 Alpha  occ. eigenvalues --   -0.25418  -0.23772  -0.23576  -0.21550
 Alpha virt. eigenvalues --   -0.12505  -0.11431  -0.09286  -0.08131  -0.07811
 Alpha virt. eigenvalues --   -0.06529  -0.06232  -0.05642  -0.04762  -0.04665
 Alpha virt. eigenvalues --   -0.04206  -0.02862  -0.02113  -0.01634  -0.01110

 Mulliken charges:
               1
     1  N   -0.759199
     2  H    0.417892
     3  H    0.414572
     4  H    0.439946
     5  C   -0.105293
     6  H    0.225693
     7  C    0.654498
     8  C   -0.485616
     9  H    0.220748
    10  H    0.196286
    11  H    0.197057
    12  O   -0.537587
    13  N   -0.613003
    14  H    0.373892
    15  C   -0.062466
    16  H    0.215737
    17  C    0.609146
    18  C   -0.354645
    19  H    0.159379
    20  H    0.179664
    21  O   -0.554235
    22  C   -0.017020
    23  C    0.012950
    24  H    0.174168
    25  C    0.098953
    26  C    0.272818
    27  C   -0.236112
    28  H    0.125117
    29  N   -0.713652
    30  H    0.372236
    31  C   -0.174939
    32  H    0.163985
    33  C   -0.155899
    34  H    0.185359
    35  C   -0.140667
    36  H    0.121931
    37  N   -0.632049
    38  H    0.394703
    39  C   -0.041807
    40  H    0.212090
    41  C    0.578862
    42  C   -0.054222
    43  H    0.151254
    44  H    0.172532
    45  O   -0.544109
    46  O   -0.628608
    47  H    0.420329
    48  N   -0.611329
    49  H    0.379765
    50  C   -0.057975
    51  H    0.200900
    52  C    0.618141
    53  C   -0.092634
    54  H    0.147981
    55  O   -0.569424
    56  C   -0.461651
    57  H    0.148935
    58  H    0.156388
    59  H    0.141692
    60  C   -0.450837
    61  H    0.151380
    62  H    0.159485
    63  H    0.148811
    64  N   -0.577697
    65  H    0.373387
    66  C   -0.075074
    67  H    0.191920
    68  C    0.602456
    69  C   -0.473929
    70  H    0.199044
    71  H    0.171028
    72  H    0.151227
    73  O   -0.612715
    74  N   -0.594172
    75  H    0.374184
    76  C   -0.076265
    77  H    0.151754
    78  C    0.594432
    79  C   -0.263125
    80  H    0.148686
    81  H    0.174536
    82  O   -0.563638
    83  C   -0.323787
    84  H    0.172169
    85  H    0.152373
    86  C   -0.122389
    87  H    0.182433
    88  H    0.178591
    89  N   -0.618268
    90  H    0.352756
    91  N   -0.812575
    92  H    0.413253
    93  H    0.419037
    94  N   -0.766184
    95  H    0.380969
    96  H    0.365570
    97  C    0.787525
    98  O   -0.617815
 Sum of Mulliken charges =   1.00000

 Dipole moment (field-independent basis, Debye):
    X=            -18.5729    Y=             -4.6625    Z=             13.8429  Tot=             23.6288
 Quadrupole moment (field-independent basis, Debye-Ang):
   XX=           -127.9588   YY=           -238.1752   ZZ=           -109.4768
   XY=           -175.4343   XZ=           -147.2927   YZ=            153.9904

 Normal termination of Gaussian 16 at Mon Jul  4 16:59:04 2022.
