 Gaussian 16, Revision C.01,
 Gaussian 16:  ES64L-G16RevC.01  3-Jul-2019

 ----------------------------------------------------------------------
 # B3LYP/6-31G* empiricaldispersion=gd3bj guess=read geom=check nosymm
 integral(ultrafinegrid)
 ----------------------------------------------------------------------

 ------------------------------------------------------
 Candidate Structure: Conf:883 Charge calc in gas phase
 ------------------------------------------------------
 Structure from the checkpoint file:  "conf-883.chk"
 Charge =  1 Multiplicity = 1

                          Input orientation:
 ---------------------------------------------------------------------
 Center     Atomic      Atomic             Coordinates (Angstroms)
 Number     Number       Type             X           Y           Z
 ---------------------------------------------------------------------
      1          7           0       -7.218662    3.739242    0.277959
      2          1           0       -7.806683    4.573991    0.359618
      3          1           0       -7.600446    3.132492   -0.453673
      4          1           0       -6.237405    4.040255    0.031845
      5          6           0       -7.017991    3.008507    1.593099
      6          1           0       -7.829205    3.286018    2.269588
      7          6           0       -5.635099    3.506687    2.065761
      8          6           0       -6.960060    1.499439    1.332561
      9          1           0       -6.714582    0.970364    2.256056
     10          1           0       -7.924081    1.134616    0.963556
     11          1           0       -6.160511    1.265108    0.619872
     12          8           0       -4.894156    4.015384    1.211205
     13          7           0       -5.286820    3.253838    3.332229
     14          1           0       -5.935439    2.695839    3.878456
     15          6           0       -3.861703    2.973565    3.648907
     16          1           0       -3.270251    3.830115    3.321153
     17          6           0       -3.566117    1.709226    2.819577
     18          6           0       -3.702717    2.731120    5.146348
     19          1           0       -4.356616    1.887946    5.416726
     20          1           0       -4.084565    3.612665    5.678239
     21          8           0       -4.269089    0.712356    2.965346
     22          6           0       -2.296409    2.440269    5.587266
     23          6           0       -1.167787    2.166445    4.845859
     24          1           0       -1.000024    2.105117    3.782246
     25          6           0       -1.904165    2.364408    6.973883
     26          6           0       -0.520875    2.041422    7.004235
     27          6           0       -2.591175    2.537418    8.186532
     28          1           0       -3.650168    2.782314    8.194554
     29          7           0       -0.104348    1.930646    5.693449
     30          1           0        0.825848    1.692923    5.385522
     31          6           0       -0.522870    2.068121    9.385497
     32          1           0       -0.006670    1.958247   10.334334
     33          6           0        0.183311    1.890638    8.202112
     34          1           0        1.241212    1.644741    8.208743
     35          6           0       -1.895904    2.388468    9.379028
     36          1           0       -2.414263    2.519258   10.324078
     37          7           0       -2.626170    1.854527    1.863015
     38          1           0       -1.953845    2.614769    1.906248
     39          6           0       -2.250198    0.778233    0.966681
     40          1           0       -2.769177   -0.122094    1.300940
     41          6           0       -0.724204    0.651452    1.075066
     42          6           0       -2.696358    1.152622   -0.470303
     43          1           0       -2.705673    0.264382   -1.106046
     44          1           0       -1.980692    1.872177   -0.892577
     45          8           0       -0.058581    1.652739    1.361594
     46          8           0       -4.012974    1.692416   -0.480813
     47          1           0       -3.972535    2.496037    0.066965
     48          7           0       -0.217790   -0.567367    0.850553
     49          1           0       -0.798507   -1.342503    0.539733
     50          6           0        1.208188   -0.864559    0.817650
     51          1           0        1.740910    0.057867    0.566604
     52          6           0        1.356776   -1.922618   -0.289188
     53          6           0        1.727170   -1.403707    2.181972
     54          1           0        1.247490   -2.380026    2.337007
     55          8           0        0.427380   -2.704646   -0.513824
     56          6           0        3.249654   -1.597965    2.161610
     57          1           0        3.761396   -0.645177    1.973786
     58          1           0        3.593048   -1.968843    3.132801
     59          1           0        3.578891   -2.308249    1.399429
     60          6           0        1.324364   -0.480129    3.340253
     61          1           0        1.729366    0.527287    3.189126
     62          1           0        1.716110   -0.877627    4.283197
     63          1           0        0.238438   -0.399264    3.438939
     64          7           0        2.523815   -1.928719   -0.949709
     65          1           0        3.310556   -1.350176   -0.660629
     66          6           0        2.904058   -2.975509   -1.883808
     67          1           0        2.549223   -3.937072   -1.493425
     68          6           0        4.446507   -2.967059   -1.900070
     69          6           0        2.296986   -2.747732   -3.274827
     70          1           0        2.571157   -3.553962   -3.961934
     71          1           0        2.650366   -1.800753   -3.694780
     72          1           0        1.207561   -2.718295   -3.191261
     73          8           0        5.074553   -2.117825   -1.254578
     74          7           0        5.018596   -3.910688   -2.656295
     75          1           0        4.487469   -4.621866   -3.153957
     76          6           0        6.454932   -4.045622   -2.862520
     77          1           0        6.896220   -3.057941   -3.018253
     78          6           0        6.624617   -4.932123   -4.116261
     79          6           0        7.088538   -4.723524   -1.623663
     80          1           0        6.710788   -4.188416   -0.746234
     81          1           0        6.692167   -5.745844   -1.571034
     82          8           0        7.704985   -4.751679   -4.776528
     83          6           0        8.621488   -4.735852   -1.517676
     84          1           0        9.004569   -3.709836   -1.582169
     85          1           0        8.880434   -5.088645   -0.508589
     86          6           0        9.404784   -5.564017   -2.545621
     87          1           0       10.466409   -5.578714   -2.269388
     88          1           0        9.298516   -5.116923   -3.529918
     89          7           0        8.925668   -6.953009   -2.612771
     90          1           0        8.747592   -7.410981   -1.728698
     91          7           0        8.594347   -7.142669   -4.918328
     92          1           0        8.395664   -7.773361   -5.683621
     93          1           0        8.229905   -6.112976   -5.028553
     94          7           0        8.420480   -9.006665   -3.517016
     95          1           0        8.133173   -9.574353   -4.299779
     96          1           0        8.882980   -9.490921   -2.761598
     97          6           0        8.646819   -7.676415   -3.709537
     98          8           0        5.751736   -5.794091   -4.319147
 ---------------------------------------------------------------------

 SCF Done:  E(RB3LYP) =  -2360.21855413     A.U. after    2 cycles

 Alpha  occ. eigenvalues --  -19.28506 -19.23847 -19.21365 -19.19539 -19.17447
 Alpha  occ. eigenvalues --  -19.16019 -19.12834 -19.12166 -14.61108 -14.50702
 Alpha  occ. eigenvalues --  -14.45785 -14.45043 -14.44684 -14.43785 -14.43595
 Alpha  occ. eigenvalues --  -14.41225 -14.41142 -14.39340 -10.44871 -10.41804
 Alpha  occ. eigenvalues --  -10.40190 -10.38662 -10.36764 -10.34641 -10.34494
 Alpha  occ. eigenvalues --  -10.32958 -10.32550 -10.32358 -10.31701 -10.30250
 Alpha  occ. eigenvalues --  -10.29585 -10.28779 -10.28275 -10.28247 -10.27606
 Alpha  occ. eigenvalues --  -10.27518 -10.25851 -10.25351 -10.25307 -10.24270
 Alpha  occ. eigenvalues --  -10.24170 -10.24161 -10.24109 -10.23735 -10.23565
 Alpha  occ. eigenvalues --  -10.23386 -10.23050 -10.22896 -10.22813  -1.20764
 Alpha  occ. eigenvalues --   -1.15123  -1.13750  -1.11620  -1.10945  -1.09428
 Alpha  occ. eigenvalues --   -1.08793  -1.07735  -1.07201  -1.05995  -1.03772
 Alpha  occ. eigenvalues --   -1.02201  -1.00111  -0.98506  -0.98002  -0.97750
 Alpha  occ. eigenvalues --   -0.95924  -0.95644  -0.93782  -0.89910  -0.89083
 Alpha  occ. eigenvalues --   -0.87313  -0.85125  -0.84523  -0.83536  -0.82286
 Alpha  occ. eigenvalues --   -0.81116  -0.79077  -0.78571  -0.77803  -0.77379
 Alpha  occ. eigenvalues --   -0.76027  -0.74917  -0.74326  -0.73866  -0.73491
 Alpha  occ. eigenvalues --   -0.72930  -0.72041  -0.70475  -0.69836  -0.68591
 Alpha  occ. eigenvalues --   -0.67953  -0.67200  -0.66493  -0.66299  -0.64969
 Alpha  occ. eigenvalues --   -0.64822  -0.64204  -0.63999  -0.63559  -0.63361
 Alpha  occ. eigenvalues --   -0.62280  -0.61917  -0.61371  -0.61100  -0.60155
 Alpha  occ. eigenvalues --   -0.60027  -0.59206  -0.58507  -0.58362  -0.57574
 Alpha  occ. eigenvalues --   -0.56676  -0.56214  -0.55076  -0.54837  -0.54601
 Alpha  occ. eigenvalues --   -0.54025  -0.53819  -0.53361  -0.53031  -0.52633
 Alpha  occ. eigenvalues --   -0.52601  -0.52483  -0.52028  -0.51778  -0.51567
 Alpha  occ. eigenvalues --   -0.51405  -0.51357  -0.50431  -0.49719  -0.49409
 Alpha  occ. eigenvalues --   -0.49113  -0.48935  -0.48756  -0.48621  -0.48272
 Alpha  occ. eigenvalues --   -0.48021  -0.47663  -0.47187  -0.46991  -0.46695
 Alpha  occ. eigenvalues --   -0.46416  -0.46344  -0.46069  -0.45758  -0.45418
 Alpha  occ. eigenvalues --   -0.44720  -0.44641  -0.44138  -0.44025  -0.43814
 Alpha  occ. eigenvalues --   -0.42859  -0.42769  -0.42421  -0.42314  -0.41708
 Alpha  occ. eigenvalues --   -0.41471  -0.41223  -0.41009  -0.40998  -0.40197
 Alpha  occ. eigenvalues --   -0.39688  -0.39426  -0.39243  -0.39157  -0.38758
 Alpha  occ. eigenvalues --   -0.38540  -0.37355  -0.36965  -0.35865  -0.35504
 Alpha  occ. eigenvalues --   -0.34992  -0.33715  -0.33051  -0.32917  -0.32810
 Alpha  occ. eigenvalues --   -0.31408  -0.31131  -0.30174  -0.29810  -0.28190
 Alpha  occ. eigenvalues --   -0.27817  -0.27140  -0.26322  -0.26262
 Alpha virt. eigenvalues --   -0.14508  -0.11678  -0.08166  -0.06836  -0.06654
 Alpha virt. eigenvalues --   -0.05941  -0.05515  -0.04883  -0.03486  -0.02954
 Alpha virt. eigenvalues --   -0.02834  -0.02156  -0.01855  -0.01666  -0.00676

 Mulliken charges:
               1
     1  N   -0.744134
     2  H    0.419651
     3  H    0.423730
     4  H    0.434723
     5  C   -0.123137
     6  H    0.217860
     7  C    0.655007
     8  C   -0.504593
     9  H    0.232980
    10  H    0.185018
    11  H    0.231463
    12  O   -0.538280
    13  N   -0.572611
    14  H    0.357558
    15  C   -0.061290
    16  H    0.190828
    17  C    0.615399
    18  C   -0.367035
    19  H    0.171595
    20  H    0.171677
    21  O   -0.539865
    22  C    0.057855
    23  C   -0.009014
    24  H    0.160114
    25  C    0.080166
    26  C    0.320527
    27  C   -0.208637
    28  H    0.115977
    29  N   -0.708330
    30  H    0.342965
    31  C   -0.149283
    32  H    0.137570
    33  C   -0.159230
    34  H    0.133946
    35  C   -0.137436
    36  H    0.132249
    37  N   -0.609256
    38  H    0.361327
    39  C   -0.087107
    40  H    0.198399
    41  C    0.637300
    42  C   -0.050572
    43  H    0.175699
    44  H    0.155900
    45  O   -0.554051
    46  O   -0.650405
    47  H    0.423395
    48  N   -0.607535
    49  H    0.357504
    50  C   -0.051557
    51  H    0.175414
    52  C    0.616388
    53  C   -0.073809
    54  H    0.145497
    55  O   -0.555941
    56  C   -0.469568
    57  H    0.150977
    58  H    0.154244
    59  H    0.168721
    60  C   -0.461982
    61  H    0.152981
    62  H    0.148514
    63  H    0.152070
    64  N   -0.608461
    65  H    0.363693
    66  C   -0.047374
    67  H    0.179554
    68  C    0.624526
    69  C   -0.448106
    70  H    0.163489
    71  H    0.159835
    72  H    0.175792
    73  O   -0.562546
    74  N   -0.617828
    75  H    0.353015
    76  C   -0.013156
    77  H    0.164090
    78  C    0.582448
    79  C   -0.267292
    80  H    0.166149
    81  H    0.131210
    82  O   -0.629247
    83  C   -0.293308
    84  H    0.166869
    85  H    0.132913
    86  C   -0.156308
    87  H    0.157929
    88  H    0.232978
    89  N   -0.601070
    90  H    0.339756
    91  N   -0.756445
    92  H    0.338390
    93  H    0.438631
    94  N   -0.767652
    95  H    0.361810
    96  H    0.355709
    97  C    0.783385
    98  O   -0.571908
 Sum of Mulliken charges =   1.00000

 Dipole moment (field-independent basis, Debye):
    X=            -14.6114    Y=              0.6342    Z=              4.6862  Tot=             15.3576
 Quadrupole moment (field-independent basis, Debye-Ang):
   XX=             38.6817   YY=           -108.3538   ZZ=           -260.8870
   XY=           -232.7098   XZ=            -35.3768   YZ=             45.8374

 Normal termination of Gaussian 16 at Mon Jul  4 16:58:51 2022.
