 Gaussian 16, Revision C.01,
 Gaussian 16:  ES64L-G16RevC.01  3-Jul-2019

 ----------------------------------------------------------------------
 # B3LYP/6-31G* empiricaldispersion=gd3bj guess=read geom=check nosymm
 integral(ultrafinegrid)
 ----------------------------------------------------------------------

 ------------------------------------------------------
 Candidate Structure: Conf:474 Charge calc in gas phase
 ------------------------------------------------------
 Structure from the checkpoint file:  "conf-474.chk"
 Charge =  1 Multiplicity = 1

                          Input orientation:
 ---------------------------------------------------------------------
 Center     Atomic      Atomic             Coordinates (Angstroms)
 Number     Number       Type             X           Y           Z
 ---------------------------------------------------------------------
      1          7           0       -8.051022    2.154856    3.358218
      2          1           0       -7.499700    2.117594    4.240315
      3          1           0       -9.035575    1.974476    3.569084
      4          1           0       -7.924565    3.103702    2.937435
      5          6           0       -7.485872    1.223638    2.313245
      6          1           0       -7.032296    0.383317    2.840626
      7          6           0       -6.427711    2.113449    1.621675
      8          6           0       -8.575587    0.778481    1.342966
      9          1           0       -8.139620    0.127335    0.580369
     10          1           0       -9.360503    0.212798    1.856068
     11          1           0       -9.018611    1.641792    0.836305
     12          8           0       -6.659305    3.324975    1.560867
     13          7           0       -5.345807    1.488495    1.161382
     14          1           0       -5.253815    0.474659    1.183303
     15          6           0       -4.162561    2.157197    0.643934
     16          1           0       -4.468420    3.056838    0.104542
     17          6           0       -3.461061    1.135807   -0.256802
     18          6           0       -3.174879    2.533880    1.798965
     19          1           0       -2.319898    3.061040    1.363031
     20          1           0       -2.777847    1.600441    2.215066
     21          8           0       -3.675675   -0.062306   -0.100864
     22          6           0       -3.832486    3.344772    2.869646
     23          6           0       -3.942614    4.712670    2.918333
     24          1           0       -3.502749    5.461517    2.274550
     25          6           0       -4.620972    2.836381    3.963669
     26          6           0       -5.209187    3.960957    4.619322
     27          6           0       -4.905936    1.547745    4.444915
     28          1           0       -4.446667    0.675761    3.987964
     29          7           0       -4.768931    5.085104    3.959531
     30          1           0       -4.964416    6.037081    4.230676
     31          6           0       -6.362598    2.528872    6.145721
     32          1           0       -7.016633    2.388010    7.000955
     33          6           0       -6.080572    3.821828    5.703341
     34          1           0       -6.516446    4.687171    6.193989
     35          6           0       -5.773046    1.400310    5.526445
     36          1           0       -5.979086    0.409786    5.921398
     37          7           0       -2.567343    1.659082   -1.140470
     38          1           0       -2.313743    2.632916   -0.981834
     39          6           0       -1.386481    0.885439   -1.531738
     40          1           0       -1.596953   -0.164405   -1.318351
     41          6           0       -0.224230    1.423036   -0.682005
     42          6           0       -1.114962    1.054330   -3.034566
     43          1           0       -0.224855    0.480959   -3.310314
     44          1           0       -0.906097    2.116024   -3.243060
     45          8           0       -0.236824    2.597241   -0.298781
     46          8           0       -2.178998    0.554715   -3.811089
     47          1           0       -2.977947    1.034100   -3.537144
     48          7           0        0.750203    0.540841   -0.411595
     49          1           0        0.738474   -0.388350   -0.815843
     50          6           0        1.951156    0.861652    0.344334
     51          1           0        2.104204    1.943428    0.260449
     52          6           0        3.087799    0.108480   -0.368313
     53          6           0        1.814580    0.485035    1.852358
     54          1           0        1.836336   -0.606789    1.937072
     55          8           0        2.844206   -0.864101   -1.091844
     56          6           0        2.991787    1.023477    2.674453
     57          1           0        3.105936    2.110802    2.555307
     58          1           0        2.820517    0.822340    3.735641
     59          1           0        3.930835    0.529633    2.417400
     60          6           0        0.491022    1.008873    2.425793
     61          1           0        0.413473    2.098212    2.336429
     62          1           0        0.426599    0.741696    3.485589
     63          1           0       -0.370932    0.563160    1.919693
     64          7           0        4.340994    0.568136   -0.157371
     65          1           0        4.460359    1.382772    0.428834
     66          6           0        5.538511   -0.030664   -0.758398
     67          1           0        5.534264    0.153222   -1.837262
     68          6           0        5.511587   -1.560015   -0.614647
     69          6           0        6.788023    0.581311   -0.124208
     70          1           0        7.681302    0.148213   -0.581445
     71          1           0        6.821969    0.378507    0.951324
     72          1           0        6.817162    1.665351   -0.281930
     73          8           0        5.747971   -2.272287   -1.599486
     74          7           0        5.203773   -2.043040    0.607885
     75          1           0        4.844910   -1.414037    1.326056
     76          6           0        4.494782   -3.317766    0.650924
     77          1           0        4.101293   -3.417753   -0.343702
     78          6           0        3.241004   -3.180346    1.549387
     79          6           0        5.388948   -4.537476    0.932179
     80          1           0        6.328008   -4.406003    0.379110
     81          1           0        5.650663   -4.563704    1.996104
     82          8           0        2.339971   -4.053272    1.345430
     83          6           0        4.708660   -5.859735    0.536417
     84          1           0        5.254899   -6.701226    0.978784
     85          1           0        3.706692   -5.870128    0.970792
     86          6           0        4.637904   -6.143636   -0.982980
     87          1           0        3.852513   -6.874820   -1.192685
     88          1           0        5.584551   -6.569103   -1.327606
     89          7           0        4.409381   -4.986506   -1.864935
     90          1           0        5.219788   -4.390868   -2.029459
     91          7           0        2.173382   -4.677570   -1.260581
     92          1           0        1.324083   -4.201027   -1.542882
     93          1           0        2.283878   -4.664881   -0.195527
     94          7           0        3.167654   -3.306682   -2.876350
     95          1           0        2.714522   -2.475630   -2.500614
     96          1           0        4.044532   -3.063822   -3.325129
     97          6           0        3.247931   -4.332358   -1.986119
     98          8           0        3.214514   -2.211660    2.336892
 ---------------------------------------------------------------------

 SCF Done:  E(RB3LYP) =  -2360.23967490     A.U. after    1 cycles

 Alpha  occ. eigenvalues --  -19.25431 -19.22743 -19.21905 -19.20618 -19.20081
 Alpha  occ. eigenvalues --  -19.17807 -19.12529 -19.12211 -14.58361 -14.48975
 Alpha  occ. eigenvalues --  -14.48608 -14.45810 -14.44630 -14.44299 -14.44250
 Alpha  occ. eigenvalues --  -14.43427 -14.41889 -14.39949 -10.42629 -10.39740
 Alpha  occ. eigenvalues --  -10.39624 -10.39488 -10.37380 -10.37135 -10.34797
 Alpha  occ. eigenvalues --  -10.34519 -10.33113 -10.32823 -10.32344 -10.31654
 Alpha  occ. eigenvalues --  -10.31520 -10.30684 -10.30590 -10.30463 -10.30338
 Alpha  occ. eigenvalues --  -10.30085 -10.30079 -10.29935 -10.29810 -10.29556
 Alpha  occ. eigenvalues --  -10.28769 -10.28572 -10.25827 -10.25271 -10.24829
 Alpha  occ. eigenvalues --  -10.23265 -10.23210 -10.23183 -10.23146  -1.18088
 Alpha  occ. eigenvalues --   -1.14739  -1.12669  -1.12566  -1.11720  -1.09634
 Alpha  occ. eigenvalues --   -1.09204  -1.08578  -1.08518  -1.05755  -1.05523
 Alpha  occ. eigenvalues --   -1.02463  -1.01122  -1.00775  -0.98230  -0.97607
 Alpha  occ. eigenvalues --   -0.96526  -0.95673  -0.95364  -0.92725  -0.90948
 Alpha  occ. eigenvalues --   -0.88046  -0.87144  -0.84967  -0.84790  -0.84125
 Alpha  occ. eigenvalues --   -0.83839  -0.82771  -0.80448  -0.78841  -0.78440
 Alpha  occ. eigenvalues --   -0.77200  -0.74278  -0.73467  -0.73360  -0.73072
 Alpha  occ. eigenvalues --   -0.72691  -0.71585  -0.71192  -0.70903  -0.70240
 Alpha  occ. eigenvalues --   -0.69364  -0.68868  -0.67526  -0.67374  -0.66578
 Alpha  occ. eigenvalues --   -0.65630  -0.65156  -0.64511  -0.64360  -0.63859
 Alpha  occ. eigenvalues --   -0.62908  -0.62468  -0.61932  -0.61082  -0.60021
 Alpha  occ. eigenvalues --   -0.59875  -0.59066  -0.58742  -0.58595  -0.57867
 Alpha  occ. eigenvalues --   -0.57511  -0.57145  -0.56985  -0.56354  -0.56297
 Alpha  occ. eigenvalues --   -0.55629  -0.55320  -0.54526  -0.54208  -0.54025
 Alpha  occ. eigenvalues --   -0.53625  -0.53310  -0.53248  -0.52979  -0.52646
 Alpha  occ. eigenvalues --   -0.52523  -0.51811  -0.51502  -0.51362  -0.51149
 Alpha  occ. eigenvalues --   -0.50892  -0.50780  -0.50627  -0.49723  -0.49363
 Alpha  occ. eigenvalues --   -0.48954  -0.48653  -0.48509  -0.48319  -0.48025
 Alpha  occ. eigenvalues --   -0.47728  -0.47227  -0.46962  -0.46313  -0.46241
 Alpha  occ. eigenvalues --   -0.45869  -0.45816  -0.45360  -0.45280  -0.45050
 Alpha  occ. eigenvalues --   -0.44883  -0.44307  -0.44284  -0.43849  -0.43533
 Alpha  occ. eigenvalues --   -0.43171  -0.42267  -0.41243  -0.41044  -0.40756
 Alpha  occ. eigenvalues --   -0.40195  -0.39713  -0.39602  -0.39093  -0.39043
 Alpha  occ. eigenvalues --   -0.38587  -0.38302  -0.37731  -0.37073  -0.36415
 Alpha  occ. eigenvalues --   -0.35550  -0.35364  -0.34870  -0.34460  -0.33776
 Alpha  occ. eigenvalues --   -0.33484  -0.33312  -0.32784  -0.31667  -0.31021
 Alpha  occ. eigenvalues --   -0.30921  -0.27751  -0.26710  -0.26426
 Alpha virt. eigenvalues --   -0.12630  -0.11939  -0.09254  -0.09082  -0.08178
 Alpha virt. eigenvalues --   -0.07325  -0.06657  -0.05836  -0.04502  -0.04321
 Alpha virt. eigenvalues --   -0.03335  -0.02559  -0.01536  -0.00897  -0.00613

 Mulliken charges:
               1
     1  N   -0.761645
     2  H    0.421814
     3  H    0.401493
     4  H    0.420677
     5  C   -0.102807
     6  H    0.204634
     7  C    0.668619
     8  C   -0.475956
     9  H    0.212134
    10  H    0.186712
    11  H    0.197805
    12  O   -0.539329
    13  N   -0.604982
    14  H    0.364975
    15  C   -0.065701
    16  H    0.193241
    17  C    0.618197
    18  C   -0.388684
    19  H    0.200654
    20  H    0.180611
    21  O   -0.514128
    22  C    0.084773
    23  C    0.035295
    24  H    0.180010
    25  C    0.062645
    26  C    0.326615
    27  C   -0.226436
    28  H    0.150629
    29  N   -0.683019
    30  H    0.348202
    31  C   -0.205284
    32  H    0.159638
    33  C   -0.171422
    34  H    0.158083
    35  C   -0.194763
    36  H    0.156056
    37  N   -0.604512
    38  H    0.351343
    39  C   -0.126133
    40  H    0.197389
    41  C    0.635564
    42  C   -0.020036
    43  H    0.161429
    44  H    0.141678
    45  O   -0.554475
    46  O   -0.599861
    47  H    0.400017
    48  N   -0.598531
    49  H    0.348842
    50  C   -0.072503
    51  H    0.173200
    52  C    0.656705
    53  C   -0.085741
    54  H    0.213069
    55  O   -0.569955
    56  C   -0.467926
    57  H    0.124781
    58  H    0.171133
    59  H    0.152697
    60  C   -0.455927
    61  H    0.150152
    62  H    0.155069
    63  H    0.133682
    64  N   -0.623365
    65  H    0.345969
    66  C   -0.014112
    67  H    0.179267
    68  C    0.617431
    69  C   -0.493365
    70  H    0.192172
    71  H    0.173408
    72  H    0.163841
    73  O   -0.576404
    74  N   -0.594069
    75  H    0.358248
    76  C   -0.062973
    77  H    0.128735
    78  C    0.607395
    79  C   -0.264746
    80  H    0.141695
    81  H    0.159318
    82  O   -0.603215
    83  C   -0.303406
    84  H    0.150343
    85  H    0.193488
    86  C   -0.152672
    87  H    0.185740
    88  H    0.168134
    89  N   -0.553534
    90  H    0.377321
    91  N   -0.741447
    92  H    0.337675
    93  H    0.423015
    94  N   -0.722587
    95  H    0.379131
    96  H    0.359014
    97  C    0.631256
    98  O   -0.577201
 Sum of Mulliken charges =   1.00000

 Dipole moment (field-independent basis, Debye):
    X=            -22.7668    Y=             10.6959    Z=              8.6465  Tot=             26.5988
 Quadrupole moment (field-independent basis, Debye-Ang):
   XX=            -13.0537   YY=           -224.9485   ZZ=           -242.0898
   XY=            -73.6336   XZ=           -115.4856   YZ=             53.3704

 Normal termination of Gaussian 16 at Mon Jul  4 16:58:34 2022.
