 Gaussian 16, Revision C.01,
 Gaussian 16:  ES64L-G16RevC.01  3-Jul-2019

 ----------------------------------------------------------------------
 # B3LYP/6-31G* empiricaldispersion=gd3bj guess=read geom=check nosymm
 integral(ultrafinegrid)
 ----------------------------------------------------------------------

 ------------------------------------------------------
 Candidate Structure: Conf:449 Charge calc in gas phase
 ------------------------------------------------------
 Structure from the checkpoint file:  "conf-449.chk"
 Charge =  1 Multiplicity = 1

                          Input orientation:
 ---------------------------------------------------------------------
 Center     Atomic      Atomic             Coordinates (Angstroms)
 Number     Number       Type             X           Y           Z
 ---------------------------------------------------------------------
      1          7           0       -4.915513   -2.608328   -0.388037
      2          1           0       -3.581670   -3.512023   -0.392930
      3          1           0       -5.726976   -3.085804   -0.776527
      4          1           0       -5.116965   -2.374740    0.586562
      5          6           0       -4.672846   -1.344120   -1.109746
      6          1           0       -4.110079   -1.584957   -2.016369
      7          6           0       -3.816655   -0.456033   -0.198277
      8          6           0       -5.965911   -0.595792   -1.470376
      9          1           0       -5.746340    0.322945   -2.023341
     10          1           0       -6.604594   -1.223604   -2.101200
     11          1           0       -6.521864   -0.328979   -0.564864
     12          8           0       -3.875242   -0.560025    1.032027
     13          7           0       -3.073233    0.470804   -0.835367
     14          1           0       -2.953243    0.459578   -1.844958
     15          6           0       -2.307506    1.492895   -0.153024
     16          1           0       -2.951927    2.036562    0.546316
     17          6           0       -1.737573    2.404134   -1.244397
     18          6           0       -1.100449    0.876095    0.621300
     19          1           0       -0.326218    0.636303   -0.110739
     20          1           0       -1.466972   -0.064906    1.031185
     21          8           0       -1.754262    2.053668   -2.427512
     22          6           0       -0.569456    1.700950    1.752726
     23          6           0        0.491035    2.582340    1.782420
     24          1           0        1.167031    2.888958    0.996865
     25          6           0       -1.101538    1.665825    3.095632
     26          6           0       -0.310471    2.543569    3.893711
     27          6           0       -2.166566    0.957589    3.687541
     28          1           0       -2.801499    0.318565    3.078653
     29          7           0        0.648573    3.084429    3.062858
     30          1           0        1.338374    3.770126    3.330685
     31          6           0       -1.594353    1.989751    5.826523
     32          1           0       -1.815657    2.113211    6.882680
     33          6           0       -0.546822    2.714695    5.262804
     34          1           0        0.053325    3.393986    5.861360
     35          6           0       -2.395266    1.123470    5.048805
     36          1           0       -3.215286    0.593262    5.523035
     37          7           0       -1.084177    3.500482   -0.810628
     38          1           0       -1.093918    3.713616    0.177836
     39          6           0       -0.157693    4.247324   -1.658832
     40          1           0       -0.588372    4.254002   -2.664757
     41          6           0        1.236063    3.561583   -1.710235
     42          6           0       -0.018820    5.678213   -1.155921
     43          1           0        0.657845    6.215629   -1.830400
     44          1           0        0.457325    5.672916   -0.161964
     45          8           0        2.261263    4.180489   -1.430312
     46          8           0       -1.319561    6.239970   -1.116372
     47          1           0       -1.230192    7.187958   -0.937903
     48          7           0        1.198624    2.250542   -2.051362
     49          1           0        0.309727    1.843365   -2.335459
     50          6           0        2.357905    1.397818   -2.279939
     51          1           0        2.938436    1.790863   -3.126159
     52          6           0        1.771984    0.024911   -2.638229
     53          6           0        3.321689    1.301529   -1.054227
     54          1           0        3.409751    2.331703   -0.700250
     55          8           0        0.602165   -0.255505   -2.364099
     56          6           0        2.768286    0.417397    0.069331
     57          1           0        2.764289   -0.639027   -0.221524
     58          1           0        3.392764    0.518214    0.965291
     59          1           0        1.750118    0.704991    0.337647
     60          6           0        4.725241    0.834602   -1.461074
     61          1           0        4.744253   -0.232906   -1.709521
     62          1           0        5.421624    0.974826   -0.627815
     63          1           0        5.113524    1.406749   -2.311701
     64          7           0        2.598348   -0.872093   -3.218905
     65          1           0        3.561860   -0.628166   -3.397547
     66          6           0        2.177900   -2.259012   -3.424737
     67          1           0        1.359668   -2.266042   -4.153558
     68          6           0        1.682031   -2.834405   -2.079119
     69          6           0        3.356272   -3.077985   -3.943301
     70          1           0        3.036348   -4.100418   -4.161857
     71          1           0        4.141703   -3.120471   -3.182666
     72          1           0        3.758610   -2.642880   -4.864127
     73          8           0        2.446544   -2.919844   -1.117068
     74          7           0        0.391025   -3.227554   -2.073809
     75          1           0       -0.210318   -2.887646   -2.820192
     76          6           0       -0.361160   -3.511150   -0.861821
     77          1           0       -0.111653   -4.503961   -0.471960
     78          6           0       -1.843217   -3.476707   -1.248623
     79          6           0       -0.183766   -2.436911    0.249962
     80          1           0        0.216122   -1.539380   -0.222872
     81          1           0       -1.174473   -2.188411    0.641223
     82          8           0       -2.617964   -3.889255   -0.265787
     83          6           0        0.694144   -2.851822    1.429604
     84          1           0        0.299905   -3.767337    1.888595
     85          1           0        1.708341   -3.048727    1.068864
     86          6           0        0.686034   -1.729818    2.463911
     87          1           0       -0.337425   -1.553003    2.811920
     88          1           0        1.061484   -0.798342    2.024753
     89          7           0        1.502162   -2.081607    3.636773
     90          1           0        2.266049   -2.728647    3.487646
     91          7           0        0.648456   -0.392333    4.968030
     92          1           0        0.400611   -0.028235    5.877083
     93          1           0        0.168470    0.046561    4.187369
     94          7           0        2.162107   -1.910626    5.852500
     95          1           0        2.179925   -1.409384    6.728110
     96          1           0        2.533070   -2.849449    5.852773
     97          6           0        1.428486   -1.460053    4.813286
     98          8           0       -2.223688   -3.013081   -2.313913
 ---------------------------------------------------------------------

 SCF Done:  E(RB3LYP) =  -2360.28317942     A.U. after    3 cycles

 Alpha  occ. eigenvalues --  -19.23310 -19.21556 -19.20375 -19.20371 -19.20268
 Alpha  occ. eigenvalues --  -19.19997 -19.19139 -19.18905 -14.51975 -14.51617
 Alpha  occ. eigenvalues --  -14.51021 -14.48127 -14.44671 -14.44603 -14.43799
 Alpha  occ. eigenvalues --  -14.42808 -14.42558 -14.42126 -10.47958 -10.38316
 Alpha  occ. eigenvalues --  -10.37353 -10.37153 -10.36733 -10.36265 -10.35843
 Alpha  occ. eigenvalues --  -10.34338 -10.32272 -10.32084 -10.31921 -10.31317
 Alpha  occ. eigenvalues --  -10.31295 -10.31001 -10.30936 -10.30754 -10.30315
 Alpha  occ. eigenvalues --  -10.29247 -10.28669 -10.28519 -10.28316 -10.28197
 Alpha  occ. eigenvalues --  -10.28147 -10.27947 -10.27733 -10.27021 -10.26877
 Alpha  occ. eigenvalues --  -10.25916 -10.25736 -10.25193 -10.24969  -1.16552
 Alpha  occ. eigenvalues --   -1.15702  -1.12882  -1.12539  -1.11503  -1.10783
 Alpha  occ. eigenvalues --   -1.10408  -1.09033  -1.07993  -1.07158  -1.05738
 Alpha  occ. eigenvalues --   -1.04605  -1.01307  -1.00933  -1.00597  -0.99645
 Alpha  occ. eigenvalues --   -0.99448  -0.98261  -0.93990  -0.90376  -0.90082
 Alpha  occ. eigenvalues --   -0.88526  -0.86163  -0.85629  -0.83740  -0.83613
 Alpha  occ. eigenvalues --   -0.83418  -0.82436  -0.80865  -0.79597  -0.79043
 Alpha  occ. eigenvalues --   -0.77019  -0.76313  -0.76099  -0.74107  -0.72841
 Alpha  occ. eigenvalues --   -0.72253  -0.72074  -0.70917  -0.70574  -0.69158
 Alpha  occ. eigenvalues --   -0.69061  -0.68448  -0.67702  -0.67328  -0.66434
 Alpha  occ. eigenvalues --   -0.66259  -0.65329  -0.64953  -0.64422  -0.64409
 Alpha  occ. eigenvalues --   -0.63704  -0.62957  -0.62385  -0.61401  -0.60754
 Alpha  occ. eigenvalues --   -0.59898  -0.59126  -0.58734  -0.58258  -0.58086
 Alpha  occ. eigenvalues --   -0.57485  -0.57035  -0.56886  -0.56485  -0.56054
 Alpha  occ. eigenvalues --   -0.55801  -0.55516  -0.54442  -0.54382  -0.54073
 Alpha  occ. eigenvalues --   -0.53597  -0.53076  -0.53012  -0.52809  -0.52579
 Alpha  occ. eigenvalues --   -0.52111  -0.51991  -0.51830  -0.51647  -0.51248
 Alpha  occ. eigenvalues --   -0.50689  -0.50492  -0.49940  -0.49679  -0.49214
 Alpha  occ. eigenvalues --   -0.49010  -0.48742  -0.48193  -0.48161  -0.47989
 Alpha  occ. eigenvalues --   -0.47716  -0.47561  -0.46811  -0.46542  -0.46294
 Alpha  occ. eigenvalues --   -0.45975  -0.45908  -0.45791  -0.45211  -0.44918
 Alpha  occ. eigenvalues --   -0.44890  -0.44513  -0.44276  -0.44054  -0.43856
 Alpha  occ. eigenvalues --   -0.43790  -0.43510  -0.43143  -0.42861  -0.42810
 Alpha  occ. eigenvalues --   -0.42331  -0.42251  -0.41575  -0.41381  -0.41040
 Alpha  occ. eigenvalues --   -0.40731  -0.40145  -0.37789  -0.37328  -0.36006
 Alpha  occ. eigenvalues --   -0.35349  -0.34913  -0.34751  -0.34434  -0.34138
 Alpha  occ. eigenvalues --   -0.34054  -0.33697  -0.33368  -0.32931  -0.32629
 Alpha  occ. eigenvalues --   -0.32489  -0.31652  -0.31208  -0.30268
 Alpha virt. eigenvalues --   -0.11844  -0.11385  -0.08386  -0.07649  -0.07414
 Alpha virt. eigenvalues --   -0.06758  -0.06012  -0.05952  -0.04867  -0.04509
 Alpha virt. eigenvalues --   -0.03879  -0.03601  -0.02869  -0.01553  -0.01528

 Mulliken charges:
               1
     1  N   -0.787372
     2  H    0.472000
     3  H    0.334857
     4  H    0.346360
     5  C   -0.072935
     6  H    0.198362
     7  C    0.635825
     8  C   -0.459871
     9  H    0.170446
    10  H    0.165791
    11  H    0.165997
    12  O   -0.554441
    13  N   -0.619122
    14  H    0.373345
    15  C   -0.021334
    16  H    0.182756
    17  C    0.608675
    18  C   -0.404095
    19  H    0.202672
    20  H    0.181314
    21  O   -0.540706
    22  C    0.040417
    23  C   -0.028330
    24  H    0.202319
    25  C   -0.006426
    26  C    0.320559
    27  C   -0.233511
    28  H    0.200439
    29  N   -0.684456
    30  H    0.344901
    31  C   -0.182008
    32  H    0.150359
    33  C   -0.182734
    34  H    0.147640
    35  C   -0.152381
    36  H    0.151433
    37  N   -0.586220
    38  H    0.347091
    39  C   -0.086149
    40  H    0.213205
    41  C    0.629079
    42  C   -0.042753
    43  H    0.166242
    44  H    0.122841
    45  O   -0.540199
    46  O   -0.617012
    47  H    0.406345
    48  N   -0.674531
    49  H    0.405490
    50  C   -0.011670
    51  H    0.167565
    52  C    0.615037
    53  C   -0.094195
    54  H    0.186181
    55  O   -0.546506
    56  C   -0.511093
    57  H    0.192040
    58  H    0.132019
    59  H    0.152590
    60  C   -0.475588
    61  H    0.147789
    62  H    0.159639
    63  H    0.156763
    64  N   -0.604024
    65  H    0.344498
    66  C   -0.015864
    67  H    0.168249
    68  C    0.635464
    69  C   -0.494835
    70  H    0.180717
    71  H    0.181478
    72  H    0.165243
    73  O   -0.553513
    74  N   -0.605326
    75  H    0.366687
    76  C    0.003317
    77  H    0.179425
    78  C    0.571066
    79  C   -0.316447
    80  H    0.197580
    81  H    0.172322
    82  O   -0.612858
    83  C   -0.313143
    84  H    0.157576
    85  H    0.198295
    86  C   -0.169993
    87  H    0.184206
    88  H    0.204183
    89  N   -0.610843
    90  H    0.364221
    91  N   -0.785310
    92  H    0.373168
    93  H    0.424318
    94  N   -0.768990
    95  H    0.378643
    96  H    0.380545
    97  C    0.834489
    98  O   -0.495297
 Sum of Mulliken charges =   1.00000

 Dipole moment (field-independent basis, Debye):
    X=              4.2767    Y=             -1.5998    Z=             15.8731  Tot=             16.5168
 Quadrupole moment (field-independent basis, Debye-Ang):
   XX=           -238.3268   YY=           -240.0457   ZZ=           -161.8922
   XY=             -3.4919   XZ=             21.0395   YZ=             -7.7061

 Normal termination of Gaussian 16 at Mon Jul  4 16:59:49 2022.
