 Gaussian 16, Revision C.01,
 Gaussian 16:  ES64L-G16RevC.01  3-Jul-2019

 ----------------------------------------------------------------------
 # B3LYP/6-31G* empiricaldispersion=gd3bj guess=read geom=check nosymm
 integral(ultrafinegrid)
 ----------------------------------------------------------------------

 ------------------------------------------------------
 Candidate Structure: Conf:879 Charge calc in gas phase
 ------------------------------------------------------
 Structure from the checkpoint file:  "conf-879.chk"
 Charge =  1 Multiplicity = 1

                          Input orientation:
 ---------------------------------------------------------------------
 Center     Atomic      Atomic             Coordinates (Angstroms)
 Number     Number       Type             X           Y           Z
 ---------------------------------------------------------------------
      1          7           0       -6.650375    3.376447    5.172987
      2          1           0       -5.654689    3.414677    5.510356
      3          1           0       -7.263377    3.008067    5.904150
      4          1           0       -6.906760    4.355099    4.923387
      5          6           0       -6.755518    2.623861    3.864802
      6          1           0       -6.106145    1.749174    3.937070
      7          6           0       -6.213827    3.673517    2.870294
      8          6           0       -8.204414    2.244937    3.583799
      9          1           0       -8.262051    1.720751    2.625800
     10          1           0       -8.603073    1.577925    4.355750
     11          1           0       -8.828504    3.141467    3.516399
     12          8           0       -6.524614    4.850098    3.079138
     13          7           0       -5.411034    3.237860    1.901853
     14          1           0       -5.225100    2.251245    1.728194
     15          6           0       -4.519819    4.117800    1.171987
     16          1           0       -5.050259    5.038801    0.922385
     17          6           0       -4.068370    3.319281   -0.054600
     18          6           0       -3.212372    4.430229    2.004007
     19          1           0       -2.788472    5.362309    1.617339
     20          1           0       -2.481118    3.647248    1.780173
     21          8           0       -4.180897    2.092493   -0.052189
     22          6           0       -3.431452    4.522474    3.481180
     23          6           0       -3.349522    3.483185    4.359329
     24          1           0       -3.036879    2.461851    4.187786
     25          6           0       -3.861067    5.683824    4.242532
     26          6           0       -4.024960    5.275831    5.584013
     27          6           0       -4.132036    7.012828    3.894615
     28          1           0       -4.033520    7.347331    2.866660
     29          7           0       -3.799759    3.877636    5.645214
     30          1           0       -3.339619    3.490105    6.464118
     31          6           0       -4.673221    7.471853    6.225259
     32          1           0       -4.976011    8.186791    6.983733
     33          6           0       -4.431730    6.148664    6.591045
     34          1           0       -4.540739    5.821368    7.621488
     35          6           0       -4.530628    7.895913    4.891738
     36          1           0       -4.736775    8.931414    4.640387
     37          7           0       -3.443964    4.019404   -1.014492
     38          1           0       -3.464390    5.030575   -1.026552
     39          6           0       -2.577817    3.369887   -1.981110
     40          1           0       -3.178064    2.825594   -2.718231
     41          6           0       -1.613556    2.414045   -1.240565
     42          6           0       -1.739285    4.446445   -2.674172
     43          1           0       -1.213800    3.991707   -3.524031
     44          1           0       -0.991038    4.820597   -1.960331
     45          8           0       -1.174576    2.699561   -0.128012
     46          8           0       -2.626824    5.481518   -3.082008
     47          1           0       -2.105634    6.176178   -3.512341
     48          7           0       -1.283033    1.317107   -1.943084
     49          1           0       -1.541353    1.225870   -2.923328
     50          6           0       -0.221519    0.405012   -1.555546
     51          1           0        0.465012    0.944475   -0.894919
     52          6           0        0.491861    0.020356   -2.865567
     53          6           0       -0.752753   -0.847197   -0.809155
     54          1           0        0.128415   -1.466283   -0.590504
     55          8           0       -0.048296    0.237746   -3.956502
     56          6           0       -1.411382   -0.457338    0.519452
     57          1           0       -2.306872    0.148993    0.348017
     58          1           0       -1.706778   -1.358612    1.069816
     59          1           0       -0.729975    0.126062    1.146994
     60          6           0       -1.712379   -1.662111   -1.683457
     61          1           0       -2.603210   -1.072207   -1.927280
     62          1           0       -2.041690   -2.561122   -1.151400
     63          1           0       -1.246602   -1.974731   -2.623304
     64          7           0        1.684625   -0.568283   -2.714772
     65          1           0        2.085466   -0.779566   -1.801929
     66          6           0        2.510008   -1.044092   -3.812056
     67          1           0        1.898025   -1.661094   -4.480636
     68          6           0        3.605476   -1.912903   -3.157654
     69          6           0        3.121729    0.115374   -4.614352
     70          1           0        3.756960   -0.256648   -5.423721
     71          1           0        3.736428    0.740250   -3.958035
     72          1           0        2.321737    0.724468   -5.042021
     73          8           0        3.699671   -1.971712   -1.923458
     74          7           0        4.408306   -2.543882   -4.022587
     75          1           0        4.435412   -2.284000   -5.020500
     76          6           0        5.727121   -3.067068   -3.689380
     77          1           0        6.227764   -2.370361   -3.005503
     78          6           0        6.524912   -3.118717   -5.059690
     79          6           0        5.698078   -4.444913   -3.017635
     80          1           0        6.719348   -4.642962   -2.676591
     81          1           0        5.033973   -4.425199   -2.145678
     82          8           0        7.563416   -3.813192   -5.038592
     83          6           0        5.303575   -5.539651   -4.011298
     84          1           0        4.253444   -5.445844   -4.311110
     85          1           0        5.941964   -5.383215   -4.889055
     86          6           0        5.581313   -6.945882   -3.494836
     87          1           0        4.824662   -7.290449   -2.779686
     88          1           0        6.568474   -6.972918   -3.015814
     89          7           0        5.592345   -7.872648   -4.649763
     90          1           0        5.636389   -7.422479   -5.557493
     91          7           0        5.992219   -9.787418   -3.414283
     92          1           0        5.858534  -10.782175   -3.308916
     93          1           0        6.104965   -9.238508   -2.574764
     94          7           0        5.673618   -9.945596   -5.702306
     95          1           0        6.148937  -10.836792   -5.733675
     96          1           0        5.502504   -9.504903   -6.595662
     97          6           0        5.761117   -9.182222   -4.590647
     98          8           0        5.976720   -2.496878   -6.006707
 ---------------------------------------------------------------------

 SCF Done:  E(RB3LYP) =  -2360.17110217     A.U. after    2 cycles

 Alpha  occ. eigenvalues --  -19.24033 -19.22475 -19.20283 -19.17053 -19.15546
 Alpha  occ. eigenvalues --  -19.13562 -19.06249 -19.05379 -14.57430 -14.50482
 Alpha  occ. eigenvalues --  -14.50236 -14.49682 -14.48740 -14.47297 -14.44057
 Alpha  occ. eigenvalues --  -14.41004 -14.39069 -14.35390 -10.46359 -10.41228
 Alpha  occ. eigenvalues --  -10.38978 -10.37259 -10.34455 -10.33313 -10.32520
 Alpha  occ. eigenvalues --  -10.31956 -10.31882 -10.31828 -10.31738 -10.31093
 Alpha  occ. eigenvalues --  -10.30339 -10.30112 -10.28905 -10.28508 -10.28506
 Alpha  occ. eigenvalues --  -10.28230 -10.27691 -10.27670 -10.27482 -10.27127
 Alpha  occ. eigenvalues --  -10.25879 -10.24261 -10.24085 -10.23295 -10.21557
 Alpha  occ. eigenvalues --  -10.21539 -10.21345 -10.20576 -10.20214  -1.16852
 Alpha  occ. eigenvalues --   -1.15022  -1.12600  -1.11628  -1.09829  -1.08928
 Alpha  occ. eigenvalues --   -1.07551  -1.07337  -1.04960  -1.04194  -1.03901
 Alpha  occ. eigenvalues --   -1.03388  -1.00604  -0.99418  -0.97810  -0.95788
 Alpha  occ. eigenvalues --   -0.93427  -0.92821  -0.91558  -0.90513  -0.90026
 Alpha  occ. eigenvalues --   -0.86522  -0.86191  -0.85165  -0.83041  -0.82791
 Alpha  occ. eigenvalues --   -0.81636  -0.80336  -0.79244  -0.78677  -0.76276
 Alpha  occ. eigenvalues --   -0.76049  -0.75396  -0.72889  -0.72637  -0.71988
 Alpha  occ. eigenvalues --   -0.71458  -0.71263  -0.70534  -0.70369  -0.69976
 Alpha  occ. eigenvalues --   -0.68701  -0.68586  -0.68084  -0.67180  -0.65817
 Alpha  occ. eigenvalues --   -0.64658  -0.64317  -0.63930  -0.63352  -0.62716
 Alpha  occ. eigenvalues --   -0.62543  -0.61481  -0.61200  -0.60707  -0.60225
 Alpha  occ. eigenvalues --   -0.59065  -0.58597  -0.58196  -0.57598  -0.57362
 Alpha  occ. eigenvalues --   -0.56698  -0.56651  -0.56395  -0.55826  -0.55579
 Alpha  occ. eigenvalues --   -0.54559  -0.54348  -0.53844  -0.53322  -0.53000
 Alpha  occ. eigenvalues --   -0.52597  -0.52371  -0.51729  -0.51384  -0.51065
 Alpha  occ. eigenvalues --   -0.50949  -0.50270  -0.50147  -0.49894  -0.49611
 Alpha  occ. eigenvalues --   -0.48826  -0.48672  -0.48421  -0.48291  -0.48029
 Alpha  occ. eigenvalues --   -0.47283  -0.46739  -0.46394  -0.46032  -0.45835
 Alpha  occ. eigenvalues --   -0.45580  -0.45449  -0.44676  -0.44186  -0.43946
 Alpha  occ. eigenvalues --   -0.43238  -0.43167  -0.43090  -0.42592  -0.42518
 Alpha  occ. eigenvalues --   -0.42413  -0.41835  -0.41616  -0.41260  -0.40473
 Alpha  occ. eigenvalues --   -0.40008  -0.39826  -0.39210  -0.38810  -0.38587
 Alpha  occ. eigenvalues --   -0.38367  -0.38147  -0.37848  -0.37597  -0.37484
 Alpha  occ. eigenvalues --   -0.37128  -0.36664  -0.36111  -0.35398  -0.34926
 Alpha  occ. eigenvalues --   -0.34313  -0.33911  -0.33592  -0.32445  -0.31271
 Alpha  occ. eigenvalues --   -0.30917  -0.30826  -0.29527  -0.28889  -0.27575
 Alpha  occ. eigenvalues --   -0.26459  -0.21641  -0.20996  -0.19809
 Alpha virt. eigenvalues --   -0.11179  -0.10939  -0.10428  -0.08331  -0.07667
 Alpha virt. eigenvalues --   -0.06575  -0.06518  -0.04077  -0.03705  -0.02811
 Alpha virt. eigenvalues --   -0.02489  -0.02076  -0.01502  -0.01448  -0.00941

 Mulliken charges:
               1
     1  N   -0.766289
     2  H    0.441412
     3  H    0.397542
     4  H    0.423241
     5  C   -0.106308
     6  H    0.197815
     7  C    0.656149
     8  C   -0.469806
     9  H    0.211985
    10  H    0.179577
    11  H    0.199961
    12  O   -0.531928
    13  N   -0.600934
    14  H    0.362958
    15  C   -0.061189
    16  H    0.192055
    17  C    0.649892
    18  C   -0.388238
    19  H    0.169938
    20  H    0.227601
    21  O   -0.537721
    22  C    0.110536
    23  C   -0.076388
    24  H    0.173263
    25  C    0.143100
    26  C    0.212998
    27  C   -0.184156
    28  H    0.142522
    29  N   -0.723245
    30  H    0.355279
    31  C   -0.142880
    32  H    0.153773
    33  C   -0.192238
    34  H    0.140495
    35  C   -0.134646
    36  H    0.153071
    37  N   -0.606550
    38  H    0.351476
    39  C   -0.029162
    40  H    0.180114
    41  C    0.635557
    42  C   -0.074300
    43  H    0.167627
    44  H    0.157767
    45  O   -0.553820
    46  O   -0.627697
    47  H    0.413031
    48  N   -0.600536
    49  H    0.355614
    50  C   -0.065796
    51  H    0.174330
    52  C    0.630932
    53  C   -0.070112
    54  H    0.138957
    55  O   -0.564892
    56  C   -0.459516
    57  H    0.170882
    58  H    0.129426
    59  H    0.146948
    60  C   -0.463100
    61  H    0.151861
    62  H    0.141261
    63  H    0.164361
    64  N   -0.621755
    65  H    0.356701
    66  C   -0.032825
    67  H    0.169498
    68  C    0.600056
    69  C   -0.462983
    70  H    0.184479
    71  H    0.152677
    72  H    0.173640
    73  O   -0.567358
    74  N   -0.620745
    75  H    0.361221
    76  C   -0.064365
    77  H    0.151718
    78  C    0.565112
    79  C   -0.255007
    80  H    0.148787
    81  H    0.143084
    82  O   -0.608066
    83  C   -0.326764
    84  H    0.155493
    85  H    0.194705
    86  C   -0.147354
    87  H    0.171590
    88  H    0.185275
    89  N   -0.596780
    90  H    0.375872
    91  N   -0.756951
    92  H    0.379903
    93  H    0.395103
    94  N   -0.758142
    95  H    0.377807
    96  H    0.382660
    97  C    0.820554
    98  O   -0.600704
 Sum of Mulliken charges =   1.00000

 Dipole moment (field-independent basis, Debye):
    X=            -19.3665    Y=            -11.5166    Z=             15.2037  Tot=             27.1817
 Quadrupole moment (field-independent basis, Debye-Ang):
   XX=           -154.2825   YY=            105.8978   ZZ=           -164.8798
   XY=           -217.8599   XZ=           -115.0597   YZ=            165.5106

 Normal termination of Gaussian 16 at Mon Jul  4 16:58:43 2022.
