 Gaussian 16, Revision C.01,
 Gaussian 16:  ES64L-G16RevC.01  3-Jul-2019

 ----------------------------------------------------------------------
 # B3LYP/6-31G* empiricaldispersion=gd3bj guess=read geom=check nosymm
 integral(ultrafinegrid)
 ----------------------------------------------------------------------

 ------------------------------------------------------
 Candidate Structure: Conf:817 Charge calc in gas phase
 ------------------------------------------------------
 Structure from the checkpoint file:  "conf-817.chk"
 Charge =  1 Multiplicity = 1

                          Input orientation:
 ---------------------------------------------------------------------
 Center     Atomic      Atomic             Coordinates (Angstroms)
 Number     Number       Type             X           Y           Z
 ---------------------------------------------------------------------
      1          7           0       -8.139941    6.887084    2.599921
      2          1           0       -7.866994    6.404488    3.493785
      3          1           0       -9.004478    7.419187    2.724650
      4          1           0       -7.338732    7.510392    2.363430
      5          6           0       -8.194293    5.911279    1.444624
      6          1           0       -8.689133    5.006203    1.802259
      7          6           0       -6.690834    5.685615    1.174890
      8          6           0       -8.918259    6.532439    0.256118
      9          1           0       -8.926468    5.821357   -0.574669
     10          1           0       -9.958017    6.775054    0.500253
     11          1           0       -8.400350    7.436610   -0.078731
     12          8           0       -5.948553    6.661341    1.322607
     13          7           0       -6.299493    4.450863    0.861941
     14          1           0       -6.945191    3.687092    0.672555
     15          6           0       -4.920358    4.020789    1.002216
     16          1           0       -4.264309    4.841699    0.708916
     17          6           0       -4.770511    2.784080    0.104805
     18          6           0       -4.637757    3.583295    2.484768
     19          1           0       -3.553655    3.496921    2.615381
     20          1           0       -5.057585    2.579858    2.613946
     21          8           0       -5.763172    2.099935   -0.137592
     22          6           0       -5.238463    4.500978    3.503476
     23          6           0       -6.456940    4.336148    4.091632
     24          1           0       -7.143386    3.502159    4.030430
     25          6           0       -4.723307    5.784163    3.950090
     26          6           0       -5.690308    6.352718    4.807072
     27          6           0       -3.544542    6.490807    3.682452
     28          1           0       -2.792198    6.083108    3.014397
     29          7           0       -6.818063    5.492883    4.828101
     30          1           0       -7.324668    5.375917    5.701442
     31          6           0       -4.324029    8.266425    5.157043
     32          1           0       -4.142748    9.227543    5.627589
     33          6           0       -5.514362    7.590710    5.420700
     34          1           0       -6.262040    8.009153    6.088929
     35          6           0       -3.354569    7.724954    4.293928
     36          1           0       -2.442978    8.282619    4.104710
     37          7           0       -3.512370    2.519466   -0.285066
     38          1           0       -2.732346    3.024585    0.128855
     39          6           0       -3.106576    1.272128   -0.902749
     40          1           0       -3.902333    0.537054   -0.750664
     41          6           0       -1.798764    0.852287   -0.205724
     42          6           0       -2.867977    1.436726   -2.410014
     43          1           0       -2.521162    0.476571   -2.821620
     44          1           0       -2.064533    2.175654   -2.559195
     45          8           0       -1.168984    1.668607    0.470515
     46          8           0       -4.087186    1.854139   -2.991010
     47          1           0       -3.940076    1.976076   -3.941065
     48          7           0       -1.418024   -0.418402   -0.422256
     49          1           0       -1.914438   -1.006900   -1.086279
     50          6           0       -0.104237   -0.940930   -0.070168
     51          1           0        0.558517   -0.088304    0.108092
     52          6           0        0.340518   -1.744685   -1.303491
     53          6           0       -0.149658   -1.825917    1.205678
     54          1           0       -0.762364   -2.704585    0.959333
     55          8           0       -0.504940   -2.285744   -2.024002
     56          6           0        1.251571   -2.300581    1.613763
     57          1           0        1.907744   -1.445917    1.823400
     58          1           0        1.192764   -2.899057    2.528630
     59          1           0        1.734490   -2.911319    0.846811
     60          6           0       -0.817707   -1.072991    2.362367
     61          1           0       -0.269159   -0.154909    2.599975
     62          1           0       -0.838423   -1.702503    3.258468
     63          1           0       -1.847415   -0.795673    2.120170
     64          7           0        1.663402   -1.811766   -1.521477
     65          1           0        2.340097   -1.444746   -0.855666
     66          6           0        2.259268   -2.666845   -2.532760
     67          1           0        1.706357   -3.613304   -2.559884
     68          6           0        3.703919   -2.925311   -2.060650
     69          6           0        2.211420   -2.021151   -3.925515
     70          1           0        2.645855   -2.679351   -4.684750
     71          1           0        2.768390   -1.078904   -3.926754
     72          1           0        1.170598   -1.821550   -4.192712
     73          8           0        4.155700   -2.328797   -1.077947
     74          7           0        4.391184   -3.823721   -2.785220
     75          1           0        4.052763   -4.153841   -3.689785
     76          6           0        5.831614   -4.023171   -2.674563
     77          1           0        6.328307   -3.044320   -2.664575
     78          6           0        6.275763   -4.781948   -3.949711
     79          6           0        6.254840   -4.751720   -1.389197
     80          1           0        7.346576   -4.816499   -1.407983
     81          1           0        5.973492   -4.115069   -0.544636
     82          8           0        7.472633   -5.202209   -3.924261
     83          6           0        5.665855   -6.149289   -1.139832
     84          1           0        5.917766   -6.427603   -0.109975
     85          1           0        4.567123   -6.102530   -1.169259
     86          6           0        6.152634   -7.304866   -2.037008
     87          1           0        6.132270   -8.243249   -1.469645
     88          1           0        7.173088   -7.130290   -2.372876
     89          7           0        5.296548   -7.491296   -3.219264
     90          1           0        4.310846   -7.322710   -3.069968
     91          7           0        6.948243   -7.569925   -4.858489
     92          1           0        7.123639   -7.808247   -5.827170
     93          1           0        7.395068   -6.646821   -4.537749
     94          7           0        4.734195   -8.083053   -5.390967
     95          1           0        4.797332   -7.633836   -6.296660
     96          1           0        3.784888   -8.201301   -5.062101
     97          6           0        5.672110   -7.681704   -4.486530
     98          8           0        5.413865   -4.978863   -4.840884
 ---------------------------------------------------------------------

 SCF Done:  E(RB3LYP) =  -2360.22700053     A.U. after    2 cycles

 Alpha  occ. eigenvalues --  -19.24617 -19.21373 -19.20272 -19.19001 -19.17344
 Alpha  occ. eigenvalues --  -19.16421 -19.12861 -19.12856 -14.57921 -14.49330
 Alpha  occ. eigenvalues --  -14.47936 -14.44682 -14.44230 -14.44157 -14.42706
 Alpha  occ. eigenvalues --  -14.41137 -14.40589 -14.39305 -10.41838 -10.39626
 Alpha  occ. eigenvalues --  -10.39521 -10.37541 -10.36069 -10.34342 -10.33760
 Alpha  occ. eigenvalues --  -10.33198 -10.32711 -10.32331 -10.32328 -10.30892
 Alpha  occ. eigenvalues --  -10.30735 -10.30672 -10.29909 -10.29708 -10.29075
 Alpha  occ. eigenvalues --  -10.28910 -10.28777 -10.28498 -10.28380 -10.28130
 Alpha  occ. eigenvalues --  -10.28101 -10.27540 -10.25314 -10.25237 -10.24143
 Alpha  occ. eigenvalues --  -10.23148 -10.22688 -10.22587 -10.21876  -1.17454
 Alpha  occ. eigenvalues --   -1.12638  -1.12048  -1.10913  -1.09325  -1.08888
 Alpha  occ. eigenvalues --   -1.08634  -1.08135  -1.08002  -1.06107  -1.04754
 Alpha  occ. eigenvalues --   -1.00919  -0.99450  -0.98364  -0.98041  -0.97835
 Alpha  occ. eigenvalues --   -0.95817  -0.95515  -0.93918  -0.92143  -0.90762
 Alpha  occ. eigenvalues --   -0.87236  -0.86262  -0.84332  -0.83565  -0.83286
 Alpha  occ. eigenvalues --   -0.82281  -0.82136  -0.79828  -0.78336  -0.76991
 Alpha  occ. eigenvalues --   -0.76427  -0.73643  -0.72842  -0.72544  -0.72291
 Alpha  occ. eigenvalues --   -0.71911  -0.70864  -0.70602  -0.69946  -0.69403
 Alpha  occ. eigenvalues --   -0.69240  -0.67336  -0.66643  -0.66305  -0.65552
 Alpha  occ. eigenvalues --   -0.64760  -0.64712  -0.63497  -0.63204  -0.63128
 Alpha  occ. eigenvalues --   -0.62099  -0.61747  -0.61534  -0.60253  -0.59255
 Alpha  occ. eigenvalues --   -0.59007  -0.58237  -0.57870  -0.57210  -0.57046
 Alpha  occ. eigenvalues --   -0.56703  -0.56186  -0.55919  -0.55362  -0.55020
 Alpha  occ. eigenvalues --   -0.54799  -0.54145  -0.53496  -0.53488  -0.53287
 Alpha  occ. eigenvalues --   -0.53040  -0.52834  -0.52440  -0.52102  -0.51622
 Alpha  occ. eigenvalues --   -0.51473  -0.51242  -0.50759  -0.50455  -0.50326
 Alpha  occ. eigenvalues --   -0.49927  -0.49405  -0.49213  -0.48976  -0.48751
 Alpha  occ. eigenvalues --   -0.48487  -0.48220  -0.47874  -0.47205  -0.46777
 Alpha  occ. eigenvalues --   -0.46392  -0.46072  -0.45648  -0.45302  -0.44771
 Alpha  occ. eigenvalues --   -0.44725  -0.44472  -0.44378  -0.44086  -0.43914
 Alpha  occ. eigenvalues --   -0.43703  -0.43334  -0.43033  -0.42938  -0.42824
 Alpha  occ. eigenvalues --   -0.41920  -0.41681  -0.41176  -0.40751  -0.39502
 Alpha  occ. eigenvalues --   -0.39392  -0.39328  -0.39129  -0.38677  -0.38643
 Alpha  occ. eigenvalues --   -0.38541  -0.37325  -0.36754  -0.35438  -0.34694
 Alpha  occ. eigenvalues --   -0.34180  -0.33831  -0.33147  -0.32927  -0.32885
 Alpha  occ. eigenvalues --   -0.32471  -0.31443  -0.31386  -0.30884  -0.30205
 Alpha  occ. eigenvalues --   -0.29769  -0.28311  -0.27394  -0.27192
 Alpha virt. eigenvalues --   -0.11655  -0.11531  -0.08827  -0.08130  -0.06661
 Alpha virt. eigenvalues --   -0.05668  -0.05036  -0.04411  -0.03417  -0.03325
 Alpha virt. eigenvalues --   -0.02679  -0.02078  -0.01296  -0.01092  -0.00420

 Mulliken charges:
               1
     1  N   -0.765338
     2  H    0.439798
     3  H    0.398461
     4  H    0.423188
     5  C   -0.108289
     6  H    0.197779
     7  C    0.659305
     8  C   -0.469542
     9  H    0.213429
    10  H    0.181648
    11  H    0.200065
    12  O   -0.530194
    13  N   -0.597276
    14  H    0.360991
    15  C   -0.068445
    16  H    0.197936
    17  C    0.642102
    18  C   -0.372338
    19  H    0.188456
    20  H    0.178213
    21  O   -0.533382
    22  C    0.110387
    23  C   -0.078230
    24  H    0.166497
    25  C    0.146467
    26  C    0.218403
    27  C   -0.188107
    28  H    0.146004
    29  N   -0.723814
    30  H    0.355975
    31  C   -0.142174
    32  H    0.155506
    33  C   -0.188498
    34  H    0.141562
    35  C   -0.133114
    36  H    0.155331
    37  N   -0.592501
    38  H    0.354469
    39  C   -0.091744
    40  H    0.198376
    41  C    0.619325
    42  C   -0.019358
    43  H    0.145586
    44  H    0.136397
    45  O   -0.546607
    46  O   -0.607247
    47  H    0.404431
    48  N   -0.606047
    49  H    0.357482
    50  C   -0.056186
    51  H    0.175107
    52  C    0.616656
    53  C   -0.071387
    54  H    0.138602
    55  O   -0.558551
    56  C   -0.467964
    57  H    0.151608
    58  H    0.154666
    59  H    0.161422
    60  C   -0.444264
    61  H    0.158920
    62  H    0.147439
    63  H    0.142167
    64  N   -0.608127
    65  H    0.363957
    66  C   -0.042519
    67  H    0.170508
    68  C    0.614209
    69  C   -0.453100
    70  H    0.161673
    71  H    0.162162
    72  H    0.177338
    73  O   -0.547495
    74  N   -0.631375
    75  H    0.348545
    76  C   -0.038819
    77  H    0.172394
    78  C    0.605918
    79  C   -0.267114
    80  H    0.167274
    81  H    0.167331
    82  O   -0.616364
    83  C   -0.296019
    84  H    0.155993
    85  H    0.132939
    86  C   -0.138144
    87  H    0.164690
    88  H    0.213649
    89  N   -0.577829
    90  H    0.338328
    91  N   -0.738586
    92  H    0.338993
    93  H    0.421545
    94  N   -0.745221
    95  H    0.368091
    96  H    0.344818
    97  C    0.744346
    98  O   -0.613551
 Sum of Mulliken charges =   1.00000

 Dipole moment (field-independent basis, Debye):
    X=            -28.7693    Y=             14.1828    Z=              6.5965  Tot=             32.7466
 Quadrupole moment (field-independent basis, Debye-Ang):
   XX=            -45.3534   YY=            -28.5554   ZZ=           -202.2391
   XY=           -234.8231   XZ=            -98.9201   YZ=            114.9736

 Normal termination of Gaussian 16 at Mon Jul  4 16:58:43 2022.
