 Gaussian 16, Revision C.01,
 Gaussian 16:  ES64L-G16RevC.01  3-Jul-2019

 ----------------------------------------------------------------------
 # B3LYP/6-31G* empiricaldispersion=gd3bj guess=read geom=check nosymm
 integral(ultrafinegrid)
 ----------------------------------------------------------------------

 ------------------------------------------------------
 Candidate Structure: Conf:288 Charge calc in gas phase
 ------------------------------------------------------
 Structure from the checkpoint file:  "conf-288.chk"
 Charge =  1 Multiplicity = 1

                          Input orientation:
 ---------------------------------------------------------------------
 Center     Atomic      Atomic             Coordinates (Angstroms)
 Number     Number       Type             X           Y           Z
 ---------------------------------------------------------------------
      1          7           0      -10.111006    3.255102    0.750166
      2          1           0      -10.814140    2.838653    0.135392
      3          1           0      -10.029841    4.258297    0.536193
      4          1           0      -10.383998    3.064763    1.750000
      5          6           0       -8.766312    2.571121    0.657668
      6          1           0       -8.631943    2.144991   -0.334959
      7          6           0       -8.817710    1.516633    1.771428
      8          6           0       -7.664150    3.606172    0.949126
      9          1           0       -6.727821    3.049299    0.944509
     10          1           0       -7.805956    4.005317    1.959511
     11          8           0       -9.612870    1.706859    2.704733
     12          6           0       -7.679525    4.692703   -0.095731
     13          6           0       -8.227174    5.953135    0.177605
     14          1           0       -8.553271    6.190727    1.189260
     15          6           0       -7.212466    4.413440   -1.389767
     16          1           0       -6.794587    3.428287   -1.587306
     17          6           0       -8.308074    6.925502   -0.825121
     18          1           0       -8.724863    7.902583   -0.599055
     19          6           0       -7.290719    5.385027   -2.384533
     20          1           0       -6.922743    5.165721   -3.383016
     21          6           0       -7.841415    6.640919   -2.106802
     22          1           0       -7.900789    7.394105   -2.886820
     23          7           0       -7.956979    0.511908    1.615849
     24          1           0       -7.346683    0.597570    0.774440
     25          6           0       -7.459388   -0.228918    2.766824
     26          1           0       -8.227556   -0.151027    3.543365
     27          6           0       -6.230458    0.556398    3.298032
     28          6           0       -7.219729   -1.699011    2.426444
     29          1           0       -6.979691   -2.274684    3.326176
     30          1           0       -6.403481   -1.811167    1.706612
     31          1           0       -8.127039   -2.128554    1.993487
     32          8           0       -6.213683    1.783485    3.248743
     33          7           0       -5.234110   -0.179921    3.847707
     34          1           0       -5.183265   -1.179158    3.693610
     35          6           0       -3.987038    0.431608    4.284090
     36          1           0       -4.009841    1.466930    3.935433
     37          6           0       -2.855891   -0.347710    3.608560
     38          6           0       -3.835436    0.391950    5.810180
     39          1           0       -2.897681    0.866772    6.118260
     40          1           0       -3.831904   -0.643871    6.163732
     41          1           0       -4.668763    0.923312    6.278078
     42          8           0       -2.914021   -1.567870    3.474495
     43          7           0       -1.797676    0.396836    3.200185
     44          1           0       -1.878128    1.406882    3.171884
     45          6           0       -0.791847   -0.150251    2.317171
     46          1           0       -0.225379   -0.923158    2.849193
     47          6           0        0.150821    0.990276    1.940358
     48          6           0       -1.375666   -0.805531    1.014530
     49          1           0       -0.591280   -0.743811    0.245398
     50          1           0       -1.529329   -1.865219    1.228260
     51          8           0       -0.192844    2.170545    1.980499
     52          6           0       -2.683710   -0.227128    0.528552
     53          6           0       -3.724264   -1.095096    0.155075
     54          1           0       -3.563099   -2.169576    0.232771
     55          6           0       -2.950024    1.150292    0.465222
     56          1           0       -2.183410    1.856731    0.770375
     57          6           0       -4.956415   -0.628029   -0.281739
     58          1           0       -5.745304   -1.322341   -0.559967
     59          6           0       -4.182406    1.643550    0.039717
     60          1           0       -4.377685    2.713609    0.054612
     61          8           0       -6.453502    1.200455   -0.579810
     62          6           0       -5.267467    0.771352   -0.307098
     63          7           0        1.378844    0.591686    1.514690
     64          1           0        1.586505   -0.398483    1.481668
     65          6           0        2.328708    1.508494    0.904870
     66          1           0        1.830597    2.482030    0.910764
     67          6           0        2.460290    1.112795   -0.573808
     68          6           0        3.639605    1.593204    1.698695
     69          1           0        4.133104    0.609626    1.691134
     70          1           0        4.311038    2.300329    1.191351
     71          8           0        1.454675    1.013121   -1.296832
     72          6           0        3.471659    2.044551    3.161333
     73          1           0        2.801077    1.327840    3.653937
     74          6           0        4.830028    1.992931    3.871379
     75          1           0        5.535997    2.701198    3.419570
     76          1           0        4.725837    2.258797    4.928208
     77          1           0        5.276146    0.992838    3.818969
     78          6           0        2.845698    3.441080    3.270090
     79          1           0        3.442878    4.180402    2.720183
     80          1           0        1.821374    3.465896    2.886767
     81          1           0        2.812000    3.760141    4.317097
     82          7           0        3.691272    0.875061   -1.053735
     83          1           0        4.465528    0.828477   -0.406537
     84          6           0        3.896116    0.339616   -2.389503
     85          1           0        3.457217    1.039872   -3.109737
     86          6           0        3.191843   -1.027978   -2.494804
     87          6           0        5.407240    0.195868   -2.638612
     88          1           0        5.894334    1.137497   -2.366740
     89          1           0        5.796037   -0.580718   -1.968336
     90          8           0        3.149645   -1.797790   -1.542531
     91          6           0        5.745261   -0.146414   -4.093033
     92          1           0        5.379990    0.653749   -4.753172
     93          1           0        5.272703   -1.071922   -4.424653
     94          6           0        7.227266   -0.299047   -4.371056
     95          8           0        7.699202   -1.081868   -5.161058
     96          8           0        7.976899    0.571031   -3.651726
     97          7           0        2.662756   -1.303432   -3.715836
     98          1           0        2.778388   -0.627067   -4.458095
     99          6           0        2.179580   -2.625831   -4.089626
    100          1           0        2.554874   -3.317670   -3.326401
    101          6           0        2.760672   -3.100385   -5.420333
    102          6           0        0.642858   -2.688361   -4.116736
    103          1           0        0.342979   -3.578751   -4.674693
    104          1           0        0.283113   -1.819163   -4.682033
    105          8           0        2.380146   -4.088307   -5.998491
    106          6           0        0.025479   -2.702652   -2.702537
    107          1           0        0.764056   -2.395580   -1.952514
    108          1           0       -0.263718   -3.724251   -2.436826
    109          6           0       -1.204990   -1.808905   -2.576441
    110          1           0       -1.770288   -2.046735   -1.667202
    111          1           0       -1.865438   -1.963331   -3.438766
    112          7           0       -0.788047   -0.403741   -2.530948
    113          1           0        0.177071   -0.203814   -2.274233
    114          7           0       -2.951589    0.471707   -2.670070
    115          1           0       -3.579165    1.071573   -2.129900
    116          1           0       -3.308412   -0.474115   -2.702587
    117          7           0       -1.159926    1.827565   -2.070477
    118          1           0       -1.827387    2.531381   -1.786796
    119          1           0       -0.243199    1.853327   -1.623626
    120          6           0       -1.643181    0.614801   -2.390338
    121          8           0        3.754644   -2.302081   -5.878088
    122          1           0        8.905149    0.416705   -3.912312
    123          1           0        4.085890   -2.704181   -6.704591
 ---------------------------------------------------------------------

 SCF Done:  E(RB3LYP) =  -2974.33309921     A.U. after    2 cycles

 Alpha  occ. eigenvalues --  -19.29175 -19.27022 -19.23644 -19.22890 -19.21542
 Alpha  occ. eigenvalues --  -19.21437 -19.21059 -19.20681 -19.18345 -19.17424
 Alpha  occ. eigenvalues --  -19.13682 -14.54733 -14.47653 -14.47197 -14.46473
 Alpha  occ. eigenvalues --  -14.46094 -14.46066 -14.45977 -14.42845 -14.42210
 Alpha  occ. eigenvalues --  -14.41993 -10.42915 -10.41264 -10.40276 -10.39571
 Alpha  occ. eigenvalues --  -10.38818 -10.38300 -10.37090 -10.35257 -10.34766
 Alpha  occ. eigenvalues --  -10.34153 -10.34009 -10.33506 -10.33173 -10.32728
 Alpha  occ. eigenvalues --  -10.31696 -10.29952 -10.29551 -10.29292 -10.28681
 Alpha  occ. eigenvalues --  -10.28678 -10.28360 -10.28210 -10.28083 -10.27409
 Alpha  occ. eigenvalues --  -10.27159 -10.26792 -10.26771 -10.26699 -10.26519
 Alpha  occ. eigenvalues --  -10.26311 -10.26201 -10.25699 -10.24835 -10.24831
 Alpha  occ. eigenvalues --  -10.24651 -10.24437 -10.24255 -10.24095 -10.23871
 Alpha  occ. eigenvalues --  -10.23187 -10.22956  -1.19814  -1.17786  -1.15482
 Alpha  occ. eigenvalues --   -1.13554  -1.13275  -1.13116  -1.11917  -1.10811
 Alpha  occ. eigenvalues --   -1.10491  -1.09383  -1.08775  -1.08426  -1.04140
 Alpha  occ. eigenvalues --   -1.03045  -1.02659  -1.02609  -1.01524  -0.99871
 Alpha  occ. eigenvalues --   -0.99833  -0.99733  -0.98515  -0.93251  -0.91313
 Alpha  occ. eigenvalues --   -0.90266  -0.89654  -0.89161  -0.88035  -0.86106
 Alpha  occ. eigenvalues --   -0.85443  -0.84836  -0.83890  -0.82205  -0.81765
 Alpha  occ. eigenvalues --   -0.81450  -0.80677  -0.79841  -0.78298  -0.78147
 Alpha  occ. eigenvalues --   -0.75327  -0.74649  -0.74502  -0.73954  -0.73652
 Alpha  occ. eigenvalues --   -0.72668  -0.72085  -0.71520  -0.71025  -0.69845
 Alpha  occ. eigenvalues --   -0.69537  -0.68880  -0.68835  -0.68773  -0.68391
 Alpha  occ. eigenvalues --   -0.68132  -0.67814  -0.67419  -0.66162  -0.65686
 Alpha  occ. eigenvalues --   -0.65521  -0.65348  -0.65130  -0.64716  -0.64367
 Alpha  occ. eigenvalues --   -0.63379  -0.62974  -0.62295  -0.61283  -0.60895
 Alpha  occ. eigenvalues --   -0.60331  -0.59409  -0.58773  -0.58489  -0.58130
 Alpha  occ. eigenvalues --   -0.57968  -0.57510  -0.57224  -0.56976  -0.56803
 Alpha  occ. eigenvalues --   -0.56312  -0.55928  -0.55718  -0.55508  -0.55305
 Alpha  occ. eigenvalues --   -0.54774  -0.54389  -0.54190  -0.53736  -0.53469
 Alpha  occ. eigenvalues --   -0.53271  -0.53220  -0.52970  -0.52916  -0.52300
 Alpha  occ. eigenvalues --   -0.52260  -0.52090  -0.51745  -0.51601  -0.51294
 Alpha  occ. eigenvalues --   -0.50987  -0.50674  -0.50517  -0.50423  -0.50072
 Alpha  occ. eigenvalues --   -0.49808  -0.49448  -0.49335  -0.49220  -0.48901
 Alpha  occ. eigenvalues --   -0.48549  -0.48370  -0.48165  -0.47975  -0.47863
 Alpha  occ. eigenvalues --   -0.47480  -0.47165  -0.46901  -0.46756  -0.46538
 Alpha  occ. eigenvalues --   -0.46419  -0.46089  -0.45553  -0.45485  -0.45475
 Alpha  occ. eigenvalues --   -0.45382  -0.45193  -0.44755  -0.44736  -0.44445
 Alpha  occ. eigenvalues --   -0.44395  -0.44346  -0.44232  -0.44075  -0.43835
 Alpha  occ. eigenvalues --   -0.43775  -0.43577  -0.42790  -0.42650  -0.41872
 Alpha  occ. eigenvalues --   -0.41415  -0.41291  -0.41257  -0.40759  -0.40724
 Alpha  occ. eigenvalues --   -0.40158  -0.40059  -0.40039  -0.39545  -0.39023
 Alpha  occ. eigenvalues --   -0.38449  -0.38120  -0.37821  -0.37577  -0.36918
 Alpha  occ. eigenvalues --   -0.35737  -0.35344  -0.35228  -0.35160  -0.35031
 Alpha  occ. eigenvalues --   -0.34686  -0.34521  -0.33806  -0.33102  -0.32702
 Alpha  occ. eigenvalues --   -0.32538  -0.31904  -0.31314  -0.30789  -0.30577
 Alpha  occ. eigenvalues --   -0.27926  -0.24476
 Alpha virt. eigenvalues --   -0.10371  -0.08632  -0.08382  -0.08233  -0.08161
 Alpha virt. eigenvalues --   -0.07772  -0.07044  -0.06622  -0.06488  -0.05923
 Alpha virt. eigenvalues --   -0.05157  -0.04688  -0.04017  -0.02949  -0.02248

 Mulliken charges:
               1
     1  N   -0.749063
     2  H    0.404441
     3  H    0.396984
     4  H    0.415461
     5  C   -0.129493
     6  H    0.233705
     7  C    0.642520
     8  C   -0.369002
     9  H    0.241826
    10  H    0.176300
    11  O   -0.556431
    12  C    0.119139
    13  C   -0.227890
    14  H    0.138273
    15  C   -0.192637
    16  H    0.181807
    17  C   -0.126506
    18  H    0.149081
    19  C   -0.132037
    20  H    0.143570
    21  C   -0.127258
    22  H    0.148065
    23  N   -0.605366
    24  H    0.410733
    25  C   -0.081926
    26  H    0.206630
    27  C    0.634759
    28  C   -0.495180
    29  H    0.162839
    30  H    0.176337
    31  H    0.173326
    32  O   -0.531116
    33  N   -0.607701
    34  H    0.355547
    35  C   -0.056365
    36  H    0.181674
    37  C    0.639141
    38  C   -0.440947
    39  H    0.154990
    40  H    0.167113
    41  H    0.174113
    42  O   -0.545685
    43  N   -0.619642
    44  H    0.355402
    45  C   -0.016859
    46  H    0.175346
    47  C    0.615975
    48  C   -0.384062
    49  H    0.132644
    50  H    0.183093
    51  O   -0.530863
    52  C    0.134767
    53  C   -0.192342
    54  H    0.124487
    55  C   -0.221920
    56  H    0.144516
    57  C   -0.248726
    58  H    0.120683
    59  C   -0.278857
    60  H    0.121008
    61  O   -0.703716
    62  C    0.414922
    63  N   -0.589666
    64  H    0.345730
    65  C   -0.073013
    66  H    0.217344
    67  C    0.647762
    68  C   -0.303307
    69  H    0.140429
    70  H    0.148371
    71  O   -0.580506
    72  C   -0.070426
    73  H    0.137778
    74  C   -0.447059
    75  H    0.146039
    76  H    0.161001
    77  H    0.144059
    78  C   -0.473706
    79  H    0.139711
    80  H    0.177172
    81  H    0.158603
    82  N   -0.603824
    83  H    0.362552
    84  C   -0.028162
    85  H    0.167504
    86  C    0.631686
    87  C   -0.314151
    88  H    0.187794
    89  H    0.178882
    90  O   -0.533388
    91  C   -0.386835
    92  H    0.177661
    93  H    0.209501
    94  C    0.582286
    95  O   -0.447134
    96  O   -0.563737
    97  N   -0.599184
    98  H    0.345329
    99  C   -0.075192
   100  H    0.225788
   101  C    0.590798
   102  C   -0.272838
   103  H    0.196491
   104  H    0.152864
   105  O   -0.436002
   106  C   -0.329836
   107  H    0.187847
   108  H    0.176449
   109  C   -0.164468
   110  H    0.188005
   111  H    0.172543
   112  N   -0.628502
   113  H    0.398357
   114  N   -0.726575
   115  H    0.369292
   116  H    0.366572
   117  N   -0.761504
   118  H    0.359862
   119  H    0.399295
   120  C    0.754900
   121  O   -0.572807
   122  H    0.422247
   123  H    0.433695
 Sum of Mulliken charges =   1.00000

 Dipole moment (field-independent basis, Debye):
    X=             -9.9461    Y=              8.5909    Z=             -6.0207  Tot=             14.4561
 Quadrupole moment (field-independent basis, Debye-Ang):
   XX=           -117.6906   YY=           -322.9926   ZZ=           -326.9362
   XY=            -55.3685   XZ=             -3.0160   YZ=             -7.8568

 Normal termination of Gaussian 16 at Sun Aug  7 18:56:20 2022.
