 Gaussian 16, Revision C.01,
 Gaussian 16:  ES64L-G16RevC.01  3-Jul-2019

 ----------------------------------------------------------------------
 # B3LYP/6-31G* empiricaldispersion=gd3bj guess=read geom=check nosymm
 integral(ultrafinegrid)
 ----------------------------------------------------------------------

 ------------------------------------------------------
 Candidate Structure: Conf:472 Charge calc in gas phase
 ------------------------------------------------------
 Structure from the checkpoint file:  "conf-472.chk"
 Charge =  1 Multiplicity = 1

                          Input orientation:
 ---------------------------------------------------------------------
 Center     Atomic      Atomic             Coordinates (Angstroms)
 Number     Number       Type             X           Y           Z
 ---------------------------------------------------------------------
      1          7           0       -4.498961    2.603788    8.367718
      2          1           0       -5.257985    2.633225    9.054556
      3          1           0       -3.756104    3.241650    8.666296
      4          1           0       -4.148953    1.600196    8.288373
      5          6           0       -4.963882    2.854326    6.947516
      6          1           0       -5.887981    3.433794    6.970752
      7          6           0       -5.166332    1.418524    6.414021
      8          6           0       -3.853706    3.595660    6.171304
      9          1           0       -2.920918    3.030242    6.285629
     10          1           0       -3.711374    4.580730    6.634998
     11          8           0       -4.536732    0.514916    6.993719
     12          6           0       -4.195773    3.734900    4.706133
     13          6           0       -5.175099    4.646903    4.295756
     14          1           0       -5.648795    5.303491    5.023172
     15          6           0       -3.583525    2.908870    3.756794
     16          1           0       -2.827386    2.194404    4.071003
     17          6           0       -5.536141    4.729223    2.951415
     18          1           0       -6.295712    5.438870    2.638906
     19          6           0       -3.936119    2.994004    2.409769
     20          1           0       -3.457434    2.350527    1.677289
     21          6           0       -4.915009    3.906408    2.011571
     22          1           0       -5.193850    3.978028    0.965484
     23          7           0       -5.954649    1.273303    5.364669
     24          1           0       -6.412138    2.065140    4.908414
     25          6           0       -6.053774    0.037320    4.591481
     26          1           0       -5.050548   -0.390293    4.504816
     27          6           0       -6.580332    0.489291    3.212818
     28          6           0       -7.002512   -0.974902    5.243901
     29          1           0       -7.052780   -1.885785    4.640018
     30          1           0       -8.008835   -0.552990    5.322603
     31          1           0       -6.640358   -1.238861    6.240963
     32          8           0       -7.277101    1.504201    3.144019
     33          7           0       -6.219184   -0.323261    2.210830
     34          1           0       -5.575340   -1.089624    2.399441
     35          6           0       -6.492376   -0.209805    0.777486
     36          1           0       -7.427841   -0.740847    0.549893
     37          6           0       -5.320645   -0.998050    0.140922
     38          6           0       -6.587641    1.230473    0.267345
     39          1           0       -6.969059    1.235326   -0.759653
     40          1           0       -5.602222    1.701294    0.289455
     41          1           0       -7.273237    1.806964    0.886264
     42          8           0       -4.721908   -1.849395    0.798474
     43          7           0       -4.969371   -0.681692   -1.130093
     44          1           0       -5.359170    0.172048   -1.505246
     45          6           0       -3.593479   -0.950037   -1.535841
     46          1           0       -3.429055   -2.029269   -1.500850
     47          6           0       -2.653566   -0.269476   -0.515280
     48          6           0       -3.347453   -0.434093   -2.968484
     49          1           0       -4.050938   -0.955061   -3.630595
     50          1           0       -3.600534    0.633906   -2.999673
     51          8           0       -2.989778    0.763868    0.070539
     52          6           0       -1.915588   -0.628161   -3.402457
     53          6           0       -1.045424    0.460813   -3.541590
     54          1           0       -1.433154    1.469706   -3.410547
     55          6           0       -1.384260   -1.910918   -3.602942
     56          1           0       -2.040057   -2.778962   -3.538396
     57          6           0        0.298489    0.283896   -3.845142
     58          1           0        0.949025    1.142893   -3.985620
     59          6           0       -0.036621   -2.104406   -3.886240
     60          1           0        0.344284   -3.110141   -4.042848
     61          8           0        2.152669   -1.171165   -4.182924
     62          6           0        0.862841   -1.009044   -3.985116
     63          7           0       -1.485224   -0.908432   -0.306221
     64          1           0       -1.200277   -1.634918   -0.955207
     65          6           0       -0.451474   -0.406170    0.587456
     66          1           0       -0.786246    0.575439    0.928496
     67          6           0        0.825208   -0.301542   -0.248385
     68          6           0       -0.226842   -1.354009    1.778484
     69          1           0        0.203235   -2.282628    1.384046
     70          1           0        0.537911   -0.907977    2.430272
     71          8           0        1.229829   -1.290838   -0.862928
     72          6           0       -1.485771   -1.681727    2.597768
     73          1           0       -2.222205   -2.133047    1.921353
     74          6           0       -1.138744   -2.702807    3.687993
     75          1           0       -0.416172   -2.287420    4.402370
     76          1           0       -2.032614   -2.997003    4.249802
     77          1           0       -0.698919   -3.610699    3.259845
     78          6           0       -2.128434   -0.428109    3.206327
     79          1           0       -1.395212    0.142698    3.793851
     80          1           0       -2.545313    0.221710    2.432622
     81          1           0       -2.941770   -0.709529    3.887057
     82          7           0        1.439685    0.893186   -0.272596
     83          1           0        1.011277    1.665163    0.219040
     84          6           0        2.554403    1.204139   -1.161529
     85          1           0        2.169854    1.272351   -2.184108
     86          6           0        3.648775    0.126654   -1.107626
     87          6           0        3.161548    2.545495   -0.736564
     88          1           0        2.376142    3.310595   -0.705309
     89          1           0        3.554740    2.437901    0.279444
     90          8           0        4.197373   -0.193149   -0.058678
     91          6           0        4.274098    3.008229   -1.674484
     92          1           0        3.928354    3.045460   -2.716144
     93          1           0        5.120690    2.313697   -1.671390
     94          6           0        4.772950    4.384133   -1.302542
     95          8           0        4.306322    5.099589   -0.442333
     96          8           0        5.831583    4.750161   -2.063265
     97          7           0        4.040547   -0.291341   -2.339130
     98          1           0        3.320548   -0.343537   -3.079409
     99          6           0        5.090346   -1.283311   -2.455649
    100          1           0        4.774678   -2.233340   -2.015036
    101          6           0        6.350095   -0.928590   -1.681747
    102          6           0        5.467057   -1.478409   -3.954476
    103          1           0        6.362461   -0.889967   -4.175947
    104          1           0        4.665998   -1.056679   -4.570154
    105          8           0        7.075120   -1.757310   -1.179631
    106          6           0        5.692806   -2.950181   -4.338882
    107          1           0        6.162301   -3.479603   -3.501094
    108          1           0        6.391491   -3.017880   -5.180573
    109          6           0        4.387361   -3.642486   -4.772778
    110          1           0        4.546922   -4.712195   -4.966222
    111          1           0        4.044079   -3.208341   -5.715784
    112          7           0        3.286536   -3.443796   -3.833483
    113          1           0        2.702718   -2.516996   -3.984406
    114          7           0        4.022004   -5.077187   -2.328688
    115          1           0        3.772576   -5.676957   -1.556288
    116          1           0        4.619265   -5.487696   -3.029533
    117          7           0        2.238839   -3.693854   -1.789361
    118          1           0        2.383327   -3.952939   -0.822865
    119          1           0        1.825099   -2.765380   -1.875367
    120          6           0        3.190281   -4.061365   -2.675539
    121          8           0        6.657090    0.389235   -1.728644
    122          1           0        6.081455    5.646389   -1.769164
    123          1           0        7.494238    0.485780   -1.237212
 ---------------------------------------------------------------------

 SCF Done:  E(RB3LYP) =  -2974.31771935     A.U. after    1 cycles

 Alpha  occ. eigenvalues --  -19.26043 -19.23976 -19.23833 -19.20626 -19.20269
 Alpha  occ. eigenvalues --  -19.18847 -19.18674 -19.18319 -19.17945 -19.15910
 Alpha  occ. eigenvalues --  -19.13665 -14.59932 -14.48501 -14.45516 -14.44527
 Alpha  occ. eigenvalues --  -14.43502 -14.43330 -14.43074 -14.42633 -14.41901
 Alpha  occ. eigenvalues --  -14.39041 -10.42652 -10.40346 -10.40081 -10.37926
 Alpha  occ. eigenvalues --  -10.36925 -10.36476 -10.36228 -10.35723 -10.35481
 Alpha  occ. eigenvalues --  -10.33574 -10.33526 -10.32781 -10.32051 -10.30052
 Alpha  occ. eigenvalues --  -10.29959 -10.29905 -10.29434 -10.28715 -10.28571
 Alpha  occ. eigenvalues --  -10.28235 -10.28125 -10.27896 -10.27484 -10.27402
 Alpha  occ. eigenvalues --  -10.27156 -10.26767 -10.25507 -10.25476 -10.25066
 Alpha  occ. eigenvalues --  -10.25017 -10.24995 -10.24762 -10.24593 -10.24590
 Alpha  occ. eigenvalues --  -10.24016 -10.23419 -10.22687 -10.22537 -10.22453
 Alpha  occ. eigenvalues --  -10.21202 -10.20905  -1.18645  -1.14782  -1.14770
 Alpha  occ. eigenvalues --   -1.13651  -1.12864  -1.12151  -1.11033  -1.10016
 Alpha  occ. eigenvalues --   -1.09004  -1.07684  -1.05773  -1.05654  -1.05294
 Alpha  occ. eigenvalues --   -1.01738  -1.01335  -1.00367  -0.99656  -0.99413
 Alpha  occ. eigenvalues --   -0.97941  -0.97299  -0.96607  -0.96029  -0.92212
 Alpha  occ. eigenvalues --   -0.88940  -0.88142  -0.87558  -0.86379  -0.85529
 Alpha  occ. eigenvalues --   -0.85334  -0.84341  -0.83507  -0.83041  -0.81608
 Alpha  occ. eigenvalues --   -0.80620  -0.79194  -0.78026  -0.77685  -0.76289
 Alpha  occ. eigenvalues --   -0.76172  -0.74817  -0.74578  -0.74461  -0.73635
 Alpha  occ. eigenvalues --   -0.72908  -0.72308  -0.70817  -0.70387  -0.70145
 Alpha  occ. eigenvalues --   -0.69549  -0.69288  -0.68172  -0.67636  -0.67414
 Alpha  occ. eigenvalues --   -0.66803  -0.65950  -0.65787  -0.65304  -0.64468
 Alpha  occ. eigenvalues --   -0.64441  -0.64210  -0.63100  -0.62679  -0.62588
 Alpha  occ. eigenvalues --   -0.62392  -0.61654  -0.61403  -0.60523  -0.60266
 Alpha  occ. eigenvalues --   -0.59814  -0.58716  -0.57868  -0.57707  -0.57515
 Alpha  occ. eigenvalues --   -0.57028  -0.56569  -0.56313  -0.56152  -0.55952
 Alpha  occ. eigenvalues --   -0.55418  -0.54940  -0.54471  -0.54359  -0.54238
 Alpha  occ. eigenvalues --   -0.53994  -0.53781  -0.53113  -0.52621  -0.52560
 Alpha  occ. eigenvalues --   -0.52442  -0.52022  -0.51947  -0.51774  -0.51539
 Alpha  occ. eigenvalues --   -0.51402  -0.51114  -0.50882  -0.50804  -0.50618
 Alpha  occ. eigenvalues --   -0.50216  -0.50038  -0.49834  -0.49716  -0.49608
 Alpha  occ. eigenvalues --   -0.49173  -0.48958  -0.48398  -0.48308  -0.48065
 Alpha  occ. eigenvalues --   -0.47875  -0.47462  -0.47121  -0.47007  -0.46802
 Alpha  occ. eigenvalues --   -0.46775  -0.46430  -0.46086  -0.45687  -0.45220
 Alpha  occ. eigenvalues --   -0.45125  -0.45104  -0.45038  -0.45007  -0.44826
 Alpha  occ. eigenvalues --   -0.44353  -0.43929  -0.43814  -0.43636  -0.43481
 Alpha  occ. eigenvalues --   -0.43241  -0.42963  -0.42927  -0.42638  -0.42527
 Alpha  occ. eigenvalues --   -0.41937  -0.41854  -0.41602  -0.40955  -0.40751
 Alpha  occ. eigenvalues --   -0.40681  -0.40383  -0.39734  -0.39307  -0.39014
 Alpha  occ. eigenvalues --   -0.38732  -0.38710  -0.38599  -0.38371  -0.37937
 Alpha  occ. eigenvalues --   -0.36267  -0.36150  -0.35925  -0.35144  -0.34802
 Alpha  occ. eigenvalues --   -0.34700  -0.34331  -0.34037  -0.33799  -0.33734
 Alpha  occ. eigenvalues --   -0.33259  -0.33034  -0.32746  -0.32193  -0.32068
 Alpha  occ. eigenvalues --   -0.31672  -0.31119  -0.30229  -0.29054  -0.28524
 Alpha  occ. eigenvalues --   -0.28461  -0.22754
 Alpha virt. eigenvalues --   -0.11965  -0.10754  -0.10247  -0.09392  -0.07136
 Alpha virt. eigenvalues --   -0.06035  -0.05659  -0.05416  -0.05073  -0.03926
 Alpha virt. eigenvalues --   -0.03604  -0.03297  -0.02961  -0.02586  -0.02406

 Mulliken charges:
               1
     1  N   -0.753722
     2  H    0.416321
     3  H    0.413506
     4  H    0.431138
     5  C   -0.111656
     6  H    0.213948
     7  C    0.655939
     8  C   -0.380936
     9  H    0.182560
    10  H    0.182592
    11  O   -0.554321
    12  C    0.150573
    13  C   -0.199896
    14  H    0.128564
    15  C   -0.198384
    16  H    0.149023
    17  C   -0.113844
    18  H    0.155904
    19  C   -0.156698
    20  H    0.212603
    21  C   -0.123334
    22  H    0.153944
    23  N   -0.590302
    24  H    0.382256
    25  C   -0.067289
    26  H    0.194633
    27  C    0.642287
    28  C   -0.449500
    29  H    0.176176
    30  H    0.174968
    31  H    0.180681
    32  O   -0.546488
    33  N   -0.640345
    34  H    0.368588
    35  C   -0.013306
    36  H    0.190752
    37  C    0.625520
    38  C   -0.515401
    39  H    0.151854
    40  H    0.184104
    41  H    0.213331
    42  O   -0.536364
    43  N   -0.594249
    44  H    0.343776
    45  C   -0.053186
    46  H    0.180948
    47  C    0.644337
    48  C   -0.377721
    49  H    0.168140
    50  H    0.146626
    51  O   -0.562712
    52  C    0.144078
    53  C   -0.189733
    54  H    0.112249
    55  C   -0.216379
    56  H    0.114608
    57  C   -0.206325
    58  H    0.116204
    59  C   -0.218995
    60  H    0.115410
    61  O   -0.746700
    62  C    0.447008
    63  N   -0.583595
    64  H    0.360440
    65  C   -0.078366
    66  H    0.164754
    67  C    0.682558
    68  C   -0.255040
    69  H    0.143813
    70  H    0.143459
    71  O   -0.576004
    72  C   -0.083221
    73  H    0.165605
    74  C   -0.442539
    75  H    0.139347
    76  H    0.140571
    77  H    0.145520
    78  C   -0.494974
    79  H    0.127026
    80  H    0.184617
    81  H    0.138354
    82  N   -0.628220
    83  H    0.337310
    84  C   -0.006848
    85  H    0.169735
    86  C    0.623719
    87  C   -0.305657
    88  H    0.152248
    89  H    0.182309
    90  O   -0.540563
    91  C   -0.385535
    92  H    0.180960
    93  H    0.227058
    94  C    0.583485
    95  O   -0.467779
    96  O   -0.566846
    97  N   -0.661429
    98  H    0.396043
    99  C    0.011373
   100  H    0.166557
   101  C    0.599365
   102  C   -0.329983
   103  H    0.171389
   104  H    0.187126
   105  O   -0.474952
   106  C   -0.278044
   107  H    0.163676
   108  H    0.158068
   109  C   -0.182771
   110  H    0.145416
   111  H    0.189628
   112  N   -0.604628
   113  H    0.446049
   114  N   -0.751358
   115  H    0.359602
   116  H    0.368290
   117  N   -0.782055
   118  H    0.347212
   119  H    0.435885
   120  C    0.730969
   121  O   -0.562708
   122  H    0.411436
   123  H    0.414782
 Sum of Mulliken charges =   1.00000

 Dipole moment (field-independent basis, Debye):
    X=            -14.9734    Y=              3.7851    Z=             22.2325  Tot=             27.0705
 Quadrupole moment (field-independent basis, Debye-Ang):
   XX=           -233.9812   YY=           -273.8357   ZZ=           -129.2529
   XY=            -70.6311   XZ=           -151.5356   YZ=             98.8563

 Normal termination of Gaussian 16 at Sun Aug  7 18:55:59 2022.
