 Gaussian 16, Revision C.01,
 Gaussian 16:  ES64L-G16RevC.01  3-Jul-2019

 ----------------------------------------------------------------------
 # B3LYP/6-31G* empiricaldispersion=gd3bj guess=read geom=check nosymm
 integral(ultrafinegrid)
 ----------------------------------------------------------------------

 ------------------------------------------------------
 Candidate Structure: Conf:549 Charge calc in gas phase
 ------------------------------------------------------
 Structure from the checkpoint file:  "conf-549.chk"
 Charge =  1 Multiplicity = 1

                          Input orientation:
 ---------------------------------------------------------------------
 Center     Atomic      Atomic             Coordinates (Angstroms)
 Number     Number       Type             X           Y           Z
 ---------------------------------------------------------------------
      1          7           0       -9.225717    1.489892    2.653744
      2          1           0       -8.302666    0.620407    1.419786
      3          1           0       -9.827759    2.261275    2.364028
      4          1           0       -9.836490    0.753491    3.012950
      5          6           0       -8.359192    1.930226    3.762115
      6          1           0       -7.623067    2.626918    3.347147
      7          6           0       -7.669127    0.668079    4.287111
      8          6           0       -9.114906    2.632265    4.913658
      9          1           0       -8.384707    2.919060    5.680578
     10          1           0       -9.789050    1.899063    5.368203
     11          8           0       -8.325369   -0.223284    4.822726
     12          6           0       -9.871026    3.842940    4.426111
     13          6           0       -9.211829    5.064374    4.232416
     14          1           0       -8.159281    5.149518    4.494047
     15          6           0      -11.228462    3.755136    4.091007
     16          1           0      -11.757349    2.818435    4.250820
     17          6           0       -9.890118    6.169170    3.720772
     18          1           0       -9.365199    7.110521    3.584939
     19          6           0      -11.911284    4.858960    3.576297
     20          1           0      -12.965535    4.774063    3.328877
     21          6           0      -11.243016    6.068569    3.388946
     22          1           0      -11.773178    6.929626    2.992892
     23          7           0       -6.331484    0.616439    4.108137
     24          1           0       -5.838031    1.352289    3.617177
     25          6           0       -5.529371   -0.529919    4.484901
     26          1           0       -5.700308   -0.739874    5.549619
     27          6           0       -4.067361   -0.108773    4.304416
     28          6           0       -5.881051   -1.789700    3.672726
     29          1           0       -5.382552   -2.678328    4.077279
     30          1           0       -5.598375   -1.664195    2.625299
     31          1           0       -6.957329   -1.954074    3.737967
     32          8           0       -3.752943    1.043934    3.987517
     33          7           0       -3.139568   -1.070426    4.515753
     34          1           0       -3.435668   -2.020764    4.689591
     35          6           0       -1.703034   -0.794849    4.470796
     36          1           0       -1.570866    0.214125    4.875603
     37          6           0       -1.195948   -0.786888    3.013036
     38          6           0       -0.946448   -1.812595    5.313806
     39          1           0        0.121195   -1.579940    5.318095
     40          1           0       -1.057407   -2.819170    4.900038
     41          1           0       -1.314231   -1.796362    6.343747
     42          8           0       -0.485392   -1.698561    2.570949
     43          7           0       -1.572831    0.287671    2.285566
     44          1           0       -2.268300    0.908387    2.702989
     45          6           0       -1.328664    0.374641    0.844334
     46          1           0       -1.443373   -0.635972    0.433876
     47          6           0        0.125526    0.814494    0.577584
     48          6           0       -2.314974    1.335776    0.174589
     49          1           0       -2.121640    2.347610    0.544889
     50          1           0       -2.059949    1.360961   -0.892414
     51          8           0        0.409163    1.929546    0.121616
     52          6           0       -3.768040    0.970902    0.373859
     53          6           0       -4.254976   -0.309336    0.071396
     54          1           0       -3.575679   -1.072653   -0.302362
     55          6           0       -4.685581    1.922839    0.827031
     56          1           0       -4.340363    2.928677    1.054516
     57          6           0       -5.595079   -0.634149    0.238474
     58          1           0       -5.966174   -1.628376    0.010493
     59          6           0       -6.037680    1.619750    0.983522
     60          1           0       -6.735430    2.387951    1.303082
     61          8           0       -7.781853   -0.060662    0.898566
     62          6           0       -6.507220    0.323669    0.716054
     63          7           0        1.052248   -0.125690    0.869773
     64          1           0        0.709988   -0.969931    1.337286
     65          6           0        2.486965    0.162054    0.898600
     66          1           0        2.597658    1.203591    1.222364
     67          6           0        3.047675    0.054072   -0.537379
     68          6           0        3.164368   -0.790506    1.882827
     69          1           0        2.631245   -0.713605    2.839463
     70          1           0        3.028421   -1.815420    1.519287
     71          8           0        3.784183   -0.858941   -0.916591
     72          6           0        4.664276   -0.545446    2.107063
     73          1           0        5.152643   -0.718365    1.143814
     74          6           0        4.962736    0.886979    2.569328
     75          1           0        4.419683    1.127285    3.491095
     76          1           0        6.030186    1.017544    2.793882
     77          1           0        4.678870    1.637514    1.821948
     78          6           0        5.213713   -1.563796    3.112689
     79          1           0        4.747403   -1.438304    4.097196
     80          1           0        5.023746   -2.590572    2.781728
     81          1           0        6.296470   -1.446376    3.249045
     82          7           0        2.617828    1.047696   -1.349618
     83          1           0        1.913118    1.676236   -0.954103
     84          6           0        2.696451    0.930805   -2.792036
     85          1           0        2.342816   -0.062199   -3.089991
     86          6           0        4.141550    1.070358   -3.291344
     87          6           0        1.775552    2.013594   -3.393868
     88          1           0        0.789591    1.897236   -2.929493
     89          1           0        2.154147    2.996999   -3.093856
     90          8           0        4.996730    1.733591   -2.686577
     91          6           0        1.627246    2.005627   -4.927893
     92          1           0        2.585245    2.221508   -5.407341
     93          1           0        0.915620    2.782406   -5.215313
     94          6           0        1.154702    0.673525   -5.460747
     95          8           0        1.829195   -0.345791   -5.496616
     96          8           0       -0.116071    0.698404   -5.884488
     97          7           0        4.398641    0.429991   -4.448469
     98          1           0        3.617203   -0.036867   -4.916278
     99          6           0        5.658170    0.595569   -5.159730
    100          1           0        6.098481    1.528922   -4.784557
    101          6           0        5.423858    0.814682   -6.655991
    102          6           0        6.670327   -0.541162   -4.943336
    103          1           0        7.438910   -0.425986   -5.711235
    104          1           0        6.181270   -1.504193   -5.137957
    105          8           0        6.206476    0.506764   -7.521702
    106          6           0        7.341075   -0.538067   -3.561486
    107          1           0        7.557160    0.494105   -3.261546
    108          1           0        8.309299   -1.047500   -3.641175
    109          6           0        6.532402   -1.232842   -2.460129
    110          1           0        6.392440   -2.291159   -2.697140
    111          1           0        5.534854   -0.824843   -2.306497
    112          7           0        7.232531   -1.190967   -1.166593
    113          1           0        7.952505   -1.884634   -1.012258
    114          7           0        6.559150    0.960084   -0.559275
    115          1           0        6.387356    1.602315    0.201314
    116          1           0        6.009520    1.133391   -1.415934
    117          7           0        7.952678   -0.276533    0.825637
    118          1           0        7.901023    0.465345    1.509263
    119          1           0        8.107374   -1.197860    1.211559
    120          6           0        7.218438   -0.165150   -0.312580
    121          8           0        4.253019    1.444708   -6.912981
    122          1           0       -0.336994   -0.200065   -6.199689
    123          1           0        4.215713    1.566554   -7.881379
 ---------------------------------------------------------------------

 SCF Done:  E(RB3LYP) =  -2974.37044747     A.U. after    1 cycles

 Alpha  occ. eigenvalues --  -19.29268 -19.29123 -19.24018 -19.23125 -19.22065
 Alpha  occ. eigenvalues --  -19.20828 -19.20474 -19.20294 -19.20158 -19.19365
 Alpha  occ. eigenvalues --  -19.16597 -14.50278 -14.50267 -14.48796 -14.45652
 Alpha  occ. eigenvalues --  -14.44633 -14.43750 -14.43716 -14.43471 -14.41393
 Alpha  occ. eigenvalues --  -14.39578 -10.46208 -10.41993 -10.41352 -10.38849
 Alpha  occ. eigenvalues --  -10.37231 -10.37011 -10.36900 -10.36644 -10.33781
 Alpha  occ. eigenvalues --  -10.33461 -10.32892 -10.32661 -10.31796 -10.31503
 Alpha  occ. eigenvalues --  -10.30976 -10.30199 -10.29565 -10.29223 -10.29094
 Alpha  occ. eigenvalues --  -10.28818 -10.28443 -10.28184 -10.28063 -10.27545
 Alpha  occ. eigenvalues --  -10.27111 -10.26343 -10.25718 -10.25668 -10.24539
 Alpha  occ. eigenvalues --  -10.24228 -10.24193 -10.24141 -10.24137 -10.23731
 Alpha  occ. eigenvalues --  -10.23727 -10.23707 -10.23670 -10.23653 -10.23497
 Alpha  occ. eigenvalues --  -10.23303 -10.23043  -1.20405  -1.19937  -1.14914
 Alpha  occ. eigenvalues --   -1.13858  -1.12652  -1.12349  -1.11799  -1.11219
 Alpha  occ. eigenvalues --   -1.11184  -1.10872  -1.08679  -1.08115  -1.04308
 Alpha  occ. eigenvalues --   -1.02891  -1.02406  -1.01450  -1.01099  -1.00710
 Alpha  occ. eigenvalues --   -0.99842  -0.98207  -0.96110  -0.90762  -0.90366
 Alpha  occ. eigenvalues --   -0.90274  -0.90198  -0.89469  -0.86766  -0.85890
 Alpha  occ. eigenvalues --   -0.84988  -0.83756  -0.83087  -0.81981  -0.81901
 Alpha  occ. eigenvalues --   -0.79859  -0.79613  -0.79122  -0.78585  -0.77978
 Alpha  occ. eigenvalues --   -0.77051  -0.76136  -0.75144  -0.73721  -0.73599
 Alpha  occ. eigenvalues --   -0.72582  -0.72093  -0.72053  -0.71298  -0.70091
 Alpha  occ. eigenvalues --   -0.69648  -0.68632  -0.68443  -0.67922  -0.67163
 Alpha  occ. eigenvalues --   -0.66825  -0.66497  -0.65821  -0.65380  -0.65248
 Alpha  occ. eigenvalues --   -0.64316  -0.63825  -0.63542  -0.63529  -0.62772
 Alpha  occ. eigenvalues --   -0.62771  -0.62494  -0.61033  -0.60859  -0.60462
 Alpha  occ. eigenvalues --   -0.59464  -0.59358  -0.58798  -0.58318  -0.58211
 Alpha  occ. eigenvalues --   -0.57920  -0.57781  -0.57625  -0.57292  -0.56521
 Alpha  occ. eigenvalues --   -0.56415  -0.56134  -0.55990  -0.55780  -0.55554
 Alpha  occ. eigenvalues --   -0.54965  -0.54948  -0.54463  -0.54221  -0.53190
 Alpha  occ. eigenvalues --   -0.52825  -0.52633  -0.52176  -0.51983  -0.51725
 Alpha  occ. eigenvalues --   -0.51644  -0.51220  -0.51164  -0.51123  -0.50785
 Alpha  occ. eigenvalues --   -0.50171  -0.49953  -0.49863  -0.49712  -0.49338
 Alpha  occ. eigenvalues --   -0.49292  -0.48927  -0.48888  -0.48486  -0.48282
 Alpha  occ. eigenvalues --   -0.47966  -0.47854  -0.47758  -0.47659  -0.47194
 Alpha  occ. eigenvalues --   -0.47162  -0.46855  -0.46664  -0.46644  -0.46351
 Alpha  occ. eigenvalues --   -0.46194  -0.46153  -0.45933  -0.45789  -0.45717
 Alpha  occ. eigenvalues --   -0.45206  -0.44917  -0.44879  -0.44637  -0.44547
 Alpha  occ. eigenvalues --   -0.44347  -0.44210  -0.44073  -0.43821  -0.43495
 Alpha  occ. eigenvalues --   -0.43370  -0.42709  -0.42311  -0.41800  -0.41642
 Alpha  occ. eigenvalues --   -0.41601  -0.41437  -0.41266  -0.41116  -0.41032
 Alpha  occ. eigenvalues --   -0.40914  -0.40296  -0.40036  -0.38680  -0.38588
 Alpha  occ. eigenvalues --   -0.38547  -0.37937  -0.37790  -0.37514  -0.36947
 Alpha  occ. eigenvalues --   -0.36317  -0.36160  -0.36130  -0.35529  -0.34973
 Alpha  occ. eigenvalues --   -0.34324  -0.34055  -0.33003  -0.32488  -0.32337
 Alpha  occ. eigenvalues --   -0.32162  -0.31018  -0.30514  -0.30042  -0.29755
 Alpha  occ. eigenvalues --   -0.28857  -0.25801
 Alpha virt. eigenvalues --   -0.10734  -0.09190  -0.08688  -0.08314  -0.07758
 Alpha virt. eigenvalues --   -0.07363  -0.06937  -0.06143  -0.05383  -0.05358
 Alpha virt. eigenvalues --   -0.05068  -0.04913  -0.03696  -0.03681  -0.02867

 Mulliken charges:
               1
     1  N   -0.776613
     2  H    0.466556
     3  H    0.334772
     4  H    0.339780
     5  C   -0.058744
     6  H    0.139900
     7  C    0.642088
     8  C   -0.362254
     9  H    0.156367
    10  H    0.175926
    11  O   -0.542512
    12  C    0.157942
    13  C   -0.179550
    14  H    0.125151
    15  C   -0.202086
    16  H    0.133000
    17  C   -0.127006
    18  H    0.137740
    19  C   -0.126060
    20  H    0.141675
    21  C   -0.129353
    22  H    0.140634
    23  N   -0.623123
    24  H    0.365238
    25  C   -0.026996
    26  H    0.189462
    27  C    0.632119
    28  C   -0.477376
    29  H    0.130538
    30  H    0.180841
    31  H    0.213772
    32  O   -0.554247
    33  N   -0.604576
    34  H    0.346927
    35  C   -0.056176
    36  H    0.187140
    37  C    0.629475
    38  C   -0.465067
    39  H    0.167050
    40  H    0.174980
    41  H    0.164908
    42  O   -0.554700
    43  N   -0.613745
    44  H    0.392347
    45  C   -0.060919
    46  H    0.178443
    47  C    0.636523
    48  C   -0.382233
    49  H    0.172306
    50  H    0.160984
    51  O   -0.557553
    52  C    0.162195
    53  C   -0.189514
    54  H    0.119310
    55  C   -0.186491
    56  H    0.127609
    57  C   -0.183751
    58  H    0.142651
    59  C   -0.236273
    60  H    0.138022
    61  O   -0.688181
    62  C    0.379514
    63  N   -0.635043
    64  H    0.394791
    65  C   -0.065238
    66  H    0.174589
    67  C    0.629339
    68  C   -0.279291
    69  H    0.150129
    70  H    0.166064
    71  O   -0.549184
    72  C   -0.097346
    73  H    0.146863
    74  C   -0.472084
    75  H    0.170959
    76  H    0.115733
    77  H    0.145807
    78  C   -0.446432
    79  H    0.159641
    80  H    0.159563
    81  H    0.115359
    82  N   -0.633741
    83  H    0.394369
    84  C   -0.039447
    85  H    0.186403
    86  C    0.632182
    87  C   -0.323747
    88  H    0.185871
    89  H    0.186091
    90  O   -0.587502
    91  C   -0.383002
    92  H    0.213607
    93  H    0.193978
    94  C    0.601972
    95  O   -0.484529
    96  O   -0.538510
    97  N   -0.616521
    98  H    0.398842
    99  C   -0.057923
   100  H    0.210810
   101  C    0.588332
   102  C   -0.269273
   103  H    0.196197
   104  H    0.156942
   105  O   -0.439458
   106  C   -0.276850
   107  H    0.159745
   108  H    0.151743
   109  C   -0.202284
   110  H    0.180583
   111  H    0.237890
   112  N   -0.585656
   113  H    0.357102
   114  N   -0.787892
   115  H    0.365185
   116  H    0.464251
   117  N   -0.755956
   118  H    0.372284
   119  H    0.371684
   120  C    0.788620
   121  O   -0.567894
   122  H    0.424567
   123  H    0.427923
 Sum of Mulliken charges =   1.00000

 Dipole moment (field-independent basis, Debye):
    X=             16.6424    Y=              1.8725    Z=             -0.5759  Tot=             16.7573
 Quadrupole moment (field-independent basis, Debye-Ang):
   XX=           -157.2627   YY=           -336.5434   ZZ=           -286.2877
   XY=            -39.6746   XZ=            -16.9824   YZ=             -6.0286

 Normal termination of Gaussian 16 at Sun Aug  7 18:55:49 2022.
