 Gaussian 16, Revision C.01,
 Gaussian 16:  ES64L-G16RevC.01  3-Jul-2019

 ----------------------------------------------------------------------
 # B3LYP/6-31G* empiricaldispersion=gd3bj guess=read geom=check nosymm
 integral(ultrafinegrid)
 ----------------------------------------------------------------------

 ------------------------------------------------------
 Candidate Structure: Conf:950 Charge calc in gas phase
 ------------------------------------------------------
 Structure from the checkpoint file:  "conf-950.chk"
 Charge =  1 Multiplicity = 1

                          Input orientation:
 ---------------------------------------------------------------------
 Center     Atomic      Atomic             Coordinates (Angstroms)
 Number     Number       Type             X           Y           Z
 ---------------------------------------------------------------------
      1          7           0       -9.308445    1.109849    3.178015
      2          1           0       -8.388370    0.244224    1.917007
      3          1           0       -9.971672    1.836181    2.910165
      4          1           0       -9.846218    0.346471    3.593059
      5          6           0       -8.382033    1.611980    4.207427
      6          1           0       -7.705561    2.330851    3.733572
      7          6           0       -7.598176    0.392588    4.702502
      8          6           0       -9.062278    2.295283    5.413854
      9          1           0       -9.745783    1.571826    5.870434
     10          1           0       -9.659855    3.138340    5.045258
     11          8           0       -8.192099   -0.556204    5.214290
     12          6           0       -8.035736    2.766763    6.417237
     13          6           0       -7.634099    1.933197    7.468938
     14          1           0       -8.110182    0.964157    7.589320
     15          6           0       -7.404699    4.006272    6.261131
     16          1           0       -7.712518    4.665486    5.452106
     17          6           0       -6.625467    2.332669    8.345168
     18          1           0       -6.331328    1.679307    9.162007
     19          6           0       -6.395079    4.408181    7.135676
     20          1           0       -5.920350    5.376507    7.005026
     21          6           0       -6.002003    3.570617    8.180322
     22          1           0       -5.220015    3.884295    8.865820
     23          7           0       -6.262601    0.451753    4.537919
     24          1           0       -5.818774    1.265439    4.128903
     25          6           0       -5.359727   -0.592669    4.970648
     26          1           0       -5.498972   -0.761493    6.047797
     27          6           0       -3.945266   -0.053832    4.734079
     28          6           0       -5.596888   -1.916112    4.219949
     29          1           0       -5.003545   -2.731498    4.649759
     30          1           0       -5.345053   -1.805471    3.162276
     31          1           0       -6.650641   -2.181672    4.311821
     32          8           0       -3.744845    1.083181    4.294129
     33          7           0       -2.929388   -0.902684    5.015760
     34          1           0       -3.137009   -1.849190    5.302358
     35          6           0       -1.525235   -0.532065    4.830000
     36          1           0       -1.444327    0.525687    5.099311
     37          6           0       -1.138718   -0.672701    3.341881
     38          6           0       -0.630702   -1.379109    5.723624
     39          1           0        0.412872   -1.077298    5.607522
     40          1           0       -0.698437   -2.437285    5.452937
     41          1           0       -0.918916   -1.252477    6.770836
     42          8           0       -0.411942   -1.597087    2.950455
     43          7           0       -1.664445    0.265834    2.535916
     44          1           0       -2.318604    0.928399    2.952646
     45          6           0       -1.436053    0.290952    1.107115
     46          1           0       -1.496030   -0.737621    0.733184
     47          6           0       -0.041042    0.866632    0.801244
     48          6           0       -2.490912    1.169511    0.401952
     49          1           0       -2.337022    2.204799    0.726974
     50          1           0       -2.265953    1.147811   -0.673624
     51          8           0        0.432857    1.799110    1.424560
     52          6           0       -3.919254    0.752341    0.664252
     53          6           0       -4.359994   -0.557199    0.425736
     54          1           0       -3.663490   -1.302062    0.044971
     55          6           0       -4.855420    1.679398    1.130507
     56          1           0       -4.544991    2.705135    1.314024
     57          6           0       -5.674889   -0.934281    0.666968
     58          1           0       -6.011812   -1.950823    0.490673
     59          6           0       -6.183165    1.323343    1.357442
     60          1           0       -6.897579    2.070193    1.688939
     61          8           0       -7.853484   -0.431223    1.404651
     62          6           0       -6.606300    0.000322    1.154784
     63          7           0        0.603467    0.237888   -0.240117
     64          1           0        0.034995   -0.318515   -0.872196
     65          6           0        1.824683    0.751797   -0.858508
     66          1           0        1.826371    1.845811   -0.808673
     67          6           0        1.806326    0.250828   -2.298551
     68          6           0        3.115828    0.179392   -0.215962
     69          1           0        3.117293   -0.904994   -0.385556
     70          1           0        3.975617    0.549994   -0.787161
     71          8           0        1.200678   -0.793970   -2.595802
     72          6           0        3.329113    0.477802    1.276815
     73          1           0        2.411542    0.225641    1.822616
     74          6           0        4.456602   -0.417981    1.806816
     75          1           0        5.395407   -0.228838    1.271916
     76          1           0        4.635234   -0.228122    2.870433
     77          1           0        4.210892   -1.480230    1.689111
     78          6           0        3.636499    1.958949    1.519482
     79          1           0        4.542527    2.260565    0.977810
     80          1           0        2.805037    2.597309    1.211037
     81          1           0        3.810102    2.144912    2.584563
     82          7           0        2.521837    0.944975   -3.201890
     83          1           0        3.115991    1.685585   -2.850138
     84          6           0        2.932307    0.303414   -4.448461
     85          1           0        2.028183    0.073399   -5.022207
     86          6           0        3.661662   -1.008397   -4.088722
     87          6           0        3.849232    1.228350   -5.253425
     88          1           0        4.738487    1.463289   -4.656525
     89          1           0        4.215845    0.682739   -6.127873
     90          8           0        4.339213   -1.102665   -3.069914
     91          6           0        3.157508    2.511487   -5.713286
     92          1           0        2.797743    3.116061   -4.872442
     93          1           0        2.267208    2.285823   -6.314451
     94          6           0        4.083465    3.368804   -6.552142
     95          8           0        5.202995    3.058900   -6.890542
     96          8           0        3.497739    4.538486   -6.887075
     97          7           0        3.493746   -2.017312   -4.971182
     98          1           0        2.904588   -1.918534   -5.790075
     99          6           0        4.016338   -3.348915   -4.723955
    100          1           0        5.096600   -3.297071   -4.552485
    101          6           0        3.753400   -4.164212   -5.979205
    102          6           0        3.362255   -4.008476   -3.485596
    103          1           0        3.623173   -3.384133   -2.627550
    104          1           0        3.821146   -4.991335   -3.334206
    105          8           0        3.047989   -3.796603   -6.894404
    106          6           0        1.841414   -4.142592   -3.613960
    107          1           0        1.585109   -4.898346   -4.365194
    108          1           0        1.407125   -3.196806   -3.957641
    109          6           0        1.162774   -4.543651   -2.303591
    110          1           0        1.682640   -5.406082   -1.867357
    111          1           0        0.121328   -4.834235   -2.497579
    112          7           0        1.199439   -3.436751   -1.342461
    113          1           0        1.272491   -2.488762   -1.726700
    114          7           0        0.509634   -4.740448    0.460616
    115          1           0        0.477327   -4.871259    1.460852
    116          1           0        0.388479   -5.551444   -0.124195
    117          7           0        1.017413   -2.514467    0.781378
    118          1           0        0.470200   -2.433860    1.646851
    119          1           0        1.232345   -1.600760    0.390869
    120          6           0        0.903503   -3.555524   -0.044681
    121          8           0        4.362631   -5.359733   -5.931504
    122          1           0        4.141863    5.029741   -7.431982
    123          1           0        4.142158   -5.830937   -6.758109
 ---------------------------------------------------------------------

 SCF Done:  E(RB3LYP) =  -2974.36799400     A.U. after    1 cycles

 Alpha  occ. eigenvalues --  -19.29579 -19.26658 -19.24369 -19.24154 -19.21936
 Alpha  occ. eigenvalues --  -19.21353 -19.21284 -19.21201 -19.20967 -19.20614
 Alpha  occ. eigenvalues --  -19.17388 -14.50058 -14.49011 -14.47653 -14.46794
 Alpha  occ. eigenvalues --  -14.46220 -14.45664 -14.45642 -14.44728 -14.42136
 Alpha  occ. eigenvalues --  -14.40740 -10.45385 -10.42064 -10.40696 -10.39504
 Alpha  occ. eigenvalues --  -10.38274 -10.38253 -10.38199 -10.37973 -10.34789
 Alpha  occ. eigenvalues --  -10.34549 -10.33817 -10.33708 -10.33704 -10.32736
 Alpha  occ. eigenvalues --  -10.32473 -10.31101 -10.30471 -10.29625 -10.29265
 Alpha  occ. eigenvalues --  -10.28938 -10.28875 -10.28776 -10.28032 -10.27660
 Alpha  occ. eigenvalues --  -10.26650 -10.26355 -10.25690 -10.25610 -10.25427
 Alpha  occ. eigenvalues --  -10.24958 -10.24793 -10.24737 -10.24486 -10.24369
 Alpha  occ. eigenvalues --  -10.24226 -10.23961 -10.23905 -10.23870 -10.23765
 Alpha  occ. eigenvalues --  -10.23609 -10.23519  -1.20688  -1.17663  -1.16109
 Alpha  occ. eigenvalues --   -1.14096  -1.13797  -1.13300  -1.13043  -1.12648
 Alpha  occ. eigenvalues --   -1.11774  -1.09557  -1.09281  -1.08783  -1.04289
 Alpha  occ. eigenvalues --   -1.03587  -1.02871  -1.02457  -1.02347  -1.01705
 Alpha  occ. eigenvalues --   -1.01461  -0.99087  -0.96980  -0.91781  -0.91274
 Alpha  occ. eigenvalues --   -0.90572  -0.90357  -0.89198  -0.87845  -0.86306
 Alpha  occ. eigenvalues --   -0.86174  -0.84521  -0.84097  -0.82719  -0.82044
 Alpha  occ. eigenvalues --   -0.80912  -0.79953  -0.79285  -0.79189  -0.77198
 Alpha  occ. eigenvalues --   -0.76481  -0.75120  -0.74865  -0.74810  -0.74209
 Alpha  occ. eigenvalues --   -0.73697  -0.72944  -0.72833  -0.71352  -0.71123
 Alpha  occ. eigenvalues --   -0.70313  -0.69730  -0.68142  -0.68007  -0.67798
 Alpha  occ. eigenvalues --   -0.67768  -0.67271  -0.66913  -0.66648  -0.65547
 Alpha  occ. eigenvalues --   -0.65317  -0.64647  -0.64256  -0.63394  -0.63031
 Alpha  occ. eigenvalues --   -0.62931  -0.62393  -0.61838  -0.60806  -0.60444
 Alpha  occ. eigenvalues --   -0.60325  -0.59714  -0.59470  -0.59014  -0.58881
 Alpha  occ. eigenvalues --   -0.58794  -0.58358  -0.57972  -0.57408  -0.57158
 Alpha  occ. eigenvalues --   -0.56804  -0.56442  -0.56181  -0.55767  -0.55586
 Alpha  occ. eigenvalues --   -0.55360  -0.55189  -0.54856  -0.54540  -0.53941
 Alpha  occ. eigenvalues --   -0.53644  -0.53088  -0.52805  -0.52711  -0.52521
 Alpha  occ. eigenvalues --   -0.52149  -0.51787  -0.51680  -0.51637  -0.51354
 Alpha  occ. eigenvalues --   -0.50860  -0.50743  -0.50661  -0.50310  -0.50120
 Alpha  occ. eigenvalues --   -0.49968  -0.49492  -0.49395  -0.49157  -0.48909
 Alpha  occ. eigenvalues --   -0.48659  -0.48564  -0.48382  -0.48261  -0.47584
 Alpha  occ. eigenvalues --   -0.47457  -0.47415  -0.47045  -0.46989  -0.46658
 Alpha  occ. eigenvalues --   -0.46550  -0.46241  -0.46065  -0.45950  -0.45818
 Alpha  occ. eigenvalues --   -0.45724  -0.45384  -0.45341  -0.45242  -0.44998
 Alpha  occ. eigenvalues --   -0.44818  -0.44576  -0.44314  -0.44242  -0.43959
 Alpha  occ. eigenvalues --   -0.43905  -0.43514  -0.43071  -0.42445  -0.41754
 Alpha  occ. eigenvalues --   -0.41745  -0.41485  -0.40934  -0.40810  -0.40602
 Alpha  occ. eigenvalues --   -0.39999  -0.39846  -0.39453  -0.39051  -0.38968
 Alpha  occ. eigenvalues --   -0.38785  -0.38701  -0.38357  -0.38125  -0.37840
 Alpha  occ. eigenvalues --   -0.37608  -0.37334  -0.36338  -0.35442  -0.35213
 Alpha  occ. eigenvalues --   -0.35043  -0.34944  -0.34437  -0.33942  -0.33920
 Alpha  occ. eigenvalues --   -0.33529  -0.31934  -0.31229  -0.31125  -0.29908
 Alpha  occ. eigenvalues --   -0.29112  -0.27053
 Alpha virt. eigenvalues --   -0.10298  -0.09655  -0.09027  -0.08496  -0.07672
 Alpha virt. eigenvalues --   -0.07061  -0.06798  -0.06232  -0.06123  -0.05323
 Alpha virt. eigenvalues --   -0.05195  -0.05128  -0.04769  -0.03539  -0.02722

 Mulliken charges:
               1
     1  N   -0.773168
     2  H    0.465413
     3  H    0.326241
     4  H    0.345736
     5  C   -0.050094
     6  H    0.139956
     7  C    0.649391
     8  C   -0.361097
     9  H    0.171026
    10  H    0.146291
    11  O   -0.552605
    12  C    0.151006
    13  C   -0.182419
    14  H    0.151382
    15  C   -0.185896
    16  H    0.123316
    17  C   -0.134720
    18  H    0.133812
    19  C   -0.126262
    20  H    0.136237
    21  C   -0.128566
    22  H    0.135261
    23  N   -0.616418
    24  H    0.367928
    25  C   -0.022921
    26  H    0.188043
    27  C    0.636336
    28  C   -0.476606
    29  H    0.126025
    30  H    0.175569
    31  H    0.218187
    32  O   -0.552025
    33  N   -0.606450
    34  H    0.343872
    35  C   -0.065286
    36  H    0.199702
    37  C    0.647776
    38  C   -0.464182
    39  H    0.179490
    40  H    0.158994
    41  H    0.170586
    42  O   -0.580223
    43  N   -0.589558
    44  H    0.395848
    45  C   -0.052005
    46  H    0.143841
    47  C    0.632869
    48  C   -0.399377
    49  H    0.179435
    50  H    0.157402
    51  O   -0.491882
    52  C    0.172525
    53  C   -0.185953
    54  H    0.105190
    55  C   -0.186203
    56  H    0.133217
    57  C   -0.178898
    58  H    0.141045
    59  C   -0.220372
    60  H    0.136706
    61  O   -0.684900
    62  C    0.378890
    63  N   -0.673403
    64  H    0.350631
    65  C   -0.049116
    66  H    0.184947
    67  C    0.642806
    68  C   -0.273479
    69  H    0.140782
    70  H    0.162675
    71  O   -0.574728
    72  C   -0.076022
    73  H    0.138796
    74  C   -0.445515
    75  H    0.152059
    76  H    0.154940
    77  H    0.135264
    78  C   -0.455339
    79  H    0.134265
    80  H    0.170854
    81  H    0.155490
    82  N   -0.586783
    83  H    0.352461
    84  C   -0.050824
    85  H    0.173102
    86  C    0.642292
    87  C   -0.302160
    88  H    0.180926
    89  H    0.189496
    90  O   -0.537139
    91  C   -0.362127
    92  H    0.179828
    93  H    0.190428
    94  C    0.588608
    95  O   -0.448991
    96  O   -0.563679
    97  N   -0.626672
    98  H    0.359287
    99  C   -0.022257
   100  H    0.209196
   101  C    0.585563
   102  C   -0.291676
   103  H    0.194637
   104  H    0.170346
   105  O   -0.463178
   106  C   -0.320467
   107  H    0.170388
   108  H    0.180445
   109  C   -0.150330
   110  H    0.167467
   111  H    0.176987
   112  N   -0.641319
   113  H    0.409726
   114  N   -0.765127
   115  H    0.382623
   116  H    0.378990
   117  N   -0.818855
   118  H    0.410449
   119  H    0.406264
   120  C    0.787946
   121  O   -0.560246
   122  H    0.421860
   123  H    0.430151
 Sum of Mulliken charges =   1.00000

 Dipole moment (field-independent basis, Debye):
    X=              0.3117    Y=             -8.9854    Z=             -2.3389  Tot=              9.2900
 Quadrupole moment (field-independent basis, Debye-Ang):
   XX=           -315.8505   YY=           -263.5924   ZZ=           -275.6589
   XY=            -34.9431   XZ=            -49.3632   YZ=             10.4130

 Normal termination of Gaussian 16 at Sun Aug  7 19:01:21 2022.
