 Gaussian 16, Revision C.01,
 Gaussian 16:  ES64L-G16RevC.01  3-Jul-2019

 ----------------------------------------------------------------------
 # B3LYP/6-31G* empiricaldispersion=gd3bj guess=read geom=check nosymm
 integral(ultrafinegrid)
 ----------------------------------------------------------------------

 ------------------------------------------------------
 Candidate Structure: Conf:234 Charge calc in gas phase
 ------------------------------------------------------
 Structure from the checkpoint file:  "conf-234.chk"
 Charge =  1 Multiplicity = 1

                          Input orientation:
 ---------------------------------------------------------------------
 Center     Atomic      Atomic             Coordinates (Angstroms)
 Number     Number       Type             X           Y           Z
 ---------------------------------------------------------------------
      1          7           0       -5.517073    3.207065    0.140376
      2          1           0       -5.525664    3.045777   -0.891384
      3          1           0       -5.177059    4.161988    0.319697
      4          1           0       -6.479551    3.074773    0.518349
      5          6           0       -4.680487    2.206143    0.882680
      6          1           0       -3.999218    1.746486    0.171785
      7          6           0       -5.691943    1.191414    1.440768
      8          6           0       -3.875382    2.889795    2.016269
      9          1           0       -3.137224    2.157577    2.357143
     10          1           0       -4.546275    3.094137    2.857627
     11          8           0       -6.879781    1.524854    1.531218
     12          6           0       -3.232658    4.170549    1.531381
     13          6           0       -2.201178    4.141570    0.581515
     14          1           0       -1.795645    3.196435    0.237872
     15          6           0       -3.743344    5.412497    1.935320
     16          1           0       -4.535239    5.452375    2.680313
     17          6           0       -1.692925    5.321476    0.041811
     18          1           0       -0.922217    5.257188   -0.718787
     19          6           0       -3.222663    6.599074    1.409082
     20          1           0       -3.618787    7.553808    1.741963
     21          6           0       -2.202304    6.554204    0.459539
     22          1           0       -1.807583    7.475836    0.042682
     23          7           0       -5.180769    0.024641    1.835413
     24          1           0       -4.172145   -0.131171    1.754725
     25          6           0       -5.975523   -0.940373    2.602509
     26          1           0       -6.661647   -0.362301    3.231688
     27          6           0       -4.963306   -1.622693    3.536178
     28          6           0       -6.791193   -1.850811    1.683192
     29          1           0       -7.429269   -2.527251    2.262672
     30          1           0       -6.142513   -2.439388    1.024905
     31          1           0       -7.446416   -1.236492    1.060983
     32          8           0       -4.120049   -0.930033    4.112748
     33          7           0       -4.989001   -2.970280    3.628845
     34          1           0       -5.617953   -3.494744    3.035838
     35          6           0       -3.874529   -3.717712    4.235501
     36          1           0       -3.515901   -3.105612    5.067524
     37          6           0       -2.754466   -3.836506    3.167187
     38          6           0       -4.336764   -5.082445    4.719747
     39          1           0       -3.499237   -5.620240    5.169615
     40          1           0       -4.698106   -5.691873    3.885575
     41          1           0       -5.130979   -4.972888    5.463327
     42          8           0       -2.406122   -4.909005    2.694512
     43          7           0       -2.263815   -2.628650    2.765065
     44          1           0       -2.620838   -1.798528    3.231160
     45          6           0       -1.504337   -2.447602    1.537389
     46          1           0       -0.522566   -2.922828    1.645597
     47          6           0       -1.325167   -0.944011    1.337982
     48          6           0       -2.216988   -3.051513    0.294146
     49          1           0       -2.198145   -4.137984    0.417487
     50          1           0       -3.266642   -2.738812    0.342310
     51          8           0       -2.299303   -0.161889    1.329058
     52          6           0       -1.623293   -2.599371   -1.020452
     53          6           0       -2.447555   -2.107360   -2.040531
     54          1           0       -3.527439   -2.122545   -1.900827
     55          6           0       -0.241512   -2.606151   -1.264827
     56          1           0        0.433710   -3.042401   -0.529581
     57          6           0       -1.921597   -1.603402   -3.225897
     58          1           0       -2.578086   -1.233036   -4.009965
     59          6           0        0.301683   -2.050297   -2.418695
     60          1           0        1.380064   -2.015841   -2.548325
     61          8           0       -0.033335   -0.826537   -4.462601
     62          6           0       -0.523452   -1.479753   -3.418045
     63          7           0       -0.065830   -0.520267    1.162926
     64          1           0        0.656712   -1.219836    1.060530
     65          6           0        0.307317    0.865139    0.871177
     66          1           0       -0.404074    1.491744    1.414173
     67          6           0        0.134686    1.144363   -0.639484
     68          6           0        1.729424    1.150896    1.341174
     69          1           0        2.426459    0.562002    0.732179
     70          1           0        1.945632    2.199656    1.104941
     71          8           0        1.082092    1.252743   -1.405858
     72          6           0        1.974279    0.896693    2.838498
     73          1           0        1.821433   -0.174230    3.037489
     74          6           0        3.428972    1.235156    3.185742
     75          1           0        3.628097    2.302553    3.029238
     76          1           0        3.646658    1.005017    4.234013
     77          1           0        4.131219    0.669555    2.562539
     78          6           0        1.000733    1.680645    3.728431
     79          1           0        1.050826    2.755286    3.510892
     80          1           0       -0.037186    1.355537    3.593331
     81          1           0        1.248895    1.544063    4.786152
     82          7           0       -1.169615    1.295114   -0.995906
     83          1           0       -1.851859    0.930572   -0.336177
     84          6           0       -1.606263    1.513445   -2.365495
     85          1           0       -1.553827    0.578700   -2.917952
     86          6           0       -0.742422    2.563395   -3.068657
     87          6           0       -3.059594    1.990918   -2.333414
     88          1           0       -3.658769    1.228091   -1.819275
     89          1           0       -3.103348    2.919404   -1.756158
     90          8           0       -0.616927    3.704905   -2.632534
     91          6           0       -3.647722    2.224326   -3.720228
     92          1           0       -3.613040    1.315120   -4.332918
     93          1           0       -3.075766    2.973536   -4.281549
     94          6           0       -5.078070    2.686345   -3.653841
     95          8           0       -5.716755    2.923809   -2.634446
     96          8           0       -5.626087    2.827145   -4.864252
     97          7           0       -0.253097    2.126699   -4.253840
     98          1           0       -0.281176    1.117674   -4.452641
     99          6           0        0.576250    2.977515   -5.081258
    100          1           0        0.824135    3.853377   -4.466671
    101          6           0       -0.173394    3.519149   -6.297761
    102          6           0        1.852706    2.245859   -5.513621
    103          1           0        2.405396    2.881566   -6.209783
    104          1           0        1.549302    1.358191   -6.083112
    105          8           0        0.344229    3.804664   -7.352945
    106          6           0        2.721907    1.835917   -4.314058
    107          1           0        2.101975    1.662806   -3.428479
    108          1           0        3.420022    2.639314   -4.054048
    109          6           0        3.526573    0.561473   -4.584043
    110          1           0        4.185786    0.344040   -3.735157
    111          1           0        4.152869    0.686809   -5.477213
    112          7           0        2.600854   -0.550681   -4.800925
    113          1           0        1.615113   -0.492778   -4.430759
    114          7           0        3.955352   -1.868451   -6.185890
    115          1           0        4.003288   -2.362779   -7.064626
    116          1           0        4.776976   -1.354305   -5.907461
    117          7           0        1.654677   -2.216439   -6.060015
    118          1           0        1.747191   -3.170937   -6.376340
    119          1           0        0.771659   -1.900163   -5.610100
    120          6           0        2.746679   -1.535547   -5.675814
    121          8           0       -1.498747    3.692516   -6.066595
    122          1           0       -6.545689    3.133037   -4.741946
    123          1           0       -1.859882    4.080005   -6.886654
 ---------------------------------------------------------------------

 SCF Done:  E(RB3LYP) =  -2974.36856254     A.U. after    3 cycles

 Alpha  occ. eigenvalues --  -19.30186 -19.26799 -19.25787 -19.23128 -19.23039
 Alpha  occ. eigenvalues --  -19.20857 -19.20687 -19.19897 -19.18984 -19.18236
 Alpha  occ. eigenvalues --  -19.15986 -14.53826 -14.47475 -14.46794 -14.46040
 Alpha  occ. eigenvalues --  -14.45655 -14.44885 -14.44635 -14.43712 -14.42904
 Alpha  occ. eigenvalues --  -14.42054 -10.43447 -10.42239 -10.39788 -10.39442
 Alpha  occ. eigenvalues --  -10.38836 -10.38135 -10.36670 -10.36205 -10.35924
 Alpha  occ. eigenvalues --  -10.35333 -10.33059 -10.32091 -10.31753 -10.31460
 Alpha  occ. eigenvalues --  -10.31219 -10.30534 -10.30344 -10.30194 -10.29386
 Alpha  occ. eigenvalues --  -10.28939 -10.28929 -10.28766 -10.27855 -10.27511
 Alpha  occ. eigenvalues --  -10.27425 -10.26978 -10.26928 -10.26647 -10.26192
 Alpha  occ. eigenvalues --  -10.26142 -10.26063 -10.25986 -10.25873 -10.25041
 Alpha  occ. eigenvalues --  -10.24972 -10.24829 -10.24752 -10.24113 -10.23701
 Alpha  occ. eigenvalues --  -10.23567 -10.23414  -1.21685  -1.17529  -1.15279
 Alpha  occ. eigenvalues --   -1.14386  -1.13079  -1.12504  -1.11796  -1.11090
 Alpha  occ. eigenvalues --   -1.10745  -1.09928  -1.08925  -1.08443  -1.03483
 Alpha  occ. eigenvalues --   -1.03242  -1.02859  -1.01806  -1.00693  -1.00370
 Alpha  occ. eigenvalues --   -0.99829  -0.99405  -0.98843  -0.94467  -0.90745
 Alpha  occ. eigenvalues --   -0.90185  -0.89860  -0.88899  -0.87399  -0.87387
 Alpha  occ. eigenvalues --   -0.85707  -0.84293  -0.83750  -0.82846  -0.82747
 Alpha  occ. eigenvalues --   -0.82431  -0.81175  -0.80036  -0.78523  -0.76676
 Alpha  occ. eigenvalues --   -0.76519  -0.75104  -0.74884  -0.74651  -0.73356
 Alpha  occ. eigenvalues --   -0.72831  -0.72574  -0.71313  -0.69945  -0.69627
 Alpha  occ. eigenvalues --   -0.69609  -0.69373  -0.68682  -0.68306  -0.68025
 Alpha  occ. eigenvalues --   -0.67770  -0.67597  -0.66979  -0.66794  -0.66427
 Alpha  occ. eigenvalues --   -0.65677  -0.65279  -0.64821  -0.64535  -0.64221
 Alpha  occ. eigenvalues --   -0.63348  -0.62776  -0.61748  -0.61418  -0.60320
 Alpha  occ. eigenvalues --   -0.60056  -0.59622  -0.59345  -0.58924  -0.58740
 Alpha  occ. eigenvalues --   -0.58556  -0.58369  -0.58322  -0.57413  -0.57200
 Alpha  occ. eigenvalues --   -0.56526  -0.56255  -0.56097  -0.55997  -0.55831
 Alpha  occ. eigenvalues --   -0.55171  -0.54936  -0.54552  -0.54463  -0.54326
 Alpha  occ. eigenvalues --   -0.54008  -0.53607  -0.53373  -0.53125  -0.52747
 Alpha  occ. eigenvalues --   -0.52006  -0.51798  -0.51501  -0.51054  -0.50996
 Alpha  occ. eigenvalues --   -0.50899  -0.50637  -0.50532  -0.50360  -0.50077
 Alpha  occ. eigenvalues --   -0.50051  -0.49874  -0.49617  -0.49269  -0.49101
 Alpha  occ. eigenvalues --   -0.48831  -0.48633  -0.48351  -0.47929  -0.47819
 Alpha  occ. eigenvalues --   -0.47729  -0.47453  -0.47319  -0.47131  -0.46711
 Alpha  occ. eigenvalues --   -0.46659  -0.46459  -0.46140  -0.45856  -0.45699
 Alpha  occ. eigenvalues --   -0.45588  -0.45358  -0.45059  -0.44839  -0.44676
 Alpha  occ. eigenvalues --   -0.44585  -0.44467  -0.44173  -0.43982  -0.43872
 Alpha  occ. eigenvalues --   -0.43368  -0.43070  -0.42965  -0.42698  -0.42469
 Alpha  occ. eigenvalues --   -0.42412  -0.42125  -0.41839  -0.41302  -0.40737
 Alpha  occ. eigenvalues --   -0.40151  -0.39748  -0.39649  -0.39521  -0.39514
 Alpha  occ. eigenvalues --   -0.38757  -0.38011  -0.37774  -0.37582  -0.37158
 Alpha  occ. eigenvalues --   -0.36689  -0.36313  -0.35660  -0.35558  -0.35015
 Alpha  occ. eigenvalues --   -0.34475  -0.33908  -0.33595  -0.33217  -0.32775
 Alpha  occ. eigenvalues --   -0.32725  -0.32035  -0.31730  -0.31423  -0.30632
 Alpha  occ. eigenvalues --   -0.30399  -0.25370
 Alpha virt. eigenvalues --   -0.10177  -0.09987  -0.09049  -0.08943  -0.08506
 Alpha virt. eigenvalues --   -0.07611  -0.07053  -0.06782  -0.06133  -0.05452
 Alpha virt. eigenvalues --   -0.04842  -0.04489  -0.03869  -0.03220  -0.03035

 Mulliken charges:
               1
     1  N   -0.793637
     2  H    0.452522
     3  H    0.396166
     4  H    0.410335
     5  C   -0.108573
     6  H    0.200840
     7  C    0.634247
     8  C   -0.380871
     9  H    0.212731
    10  H    0.182836
    11  O   -0.546071
    12  C    0.109001
    13  C   -0.200653
    14  H    0.164428
    15  C   -0.217771
    16  H    0.144562
    17  C   -0.138987
    18  H    0.193153
    19  C   -0.120028
    20  H    0.154473
    21  C   -0.132547
    22  H    0.155044
    23  N   -0.631591
    24  H    0.413111
    25  C   -0.021616
    26  H    0.209948
    27  C    0.581224
    28  C   -0.487256
    29  H    0.168836
    30  H    0.162434
    31  H    0.194136
    32  O   -0.534914
    33  N   -0.587910
    34  H    0.347736
    35  C   -0.080617
    36  H    0.199757
    37  C    0.624472
    38  C   -0.455587
    39  H    0.185124
    40  H    0.166119
    41  H    0.163601
    42  O   -0.507771
    43  N   -0.669322
    44  H    0.385098
    45  C    0.011975
    46  H    0.162359
    47  C    0.620355
    48  C   -0.366381
    49  H    0.206827
    50  H    0.132876
    51  O   -0.595452
    52  C    0.150669
    53  C   -0.192322
    54  H    0.108929
    55  C   -0.207476
    56  H    0.108841
    57  C   -0.217760
    58  H    0.114432
    59  C   -0.192080
    60  H    0.110002
    61  O   -0.761056
    62  C    0.423756
    63  N   -0.566545
    64  H    0.348706
    65  C   -0.102131
    66  H    0.185640
    67  C    0.665890
    68  C   -0.281437
    69  H    0.153626
    70  H    0.163718
    71  O   -0.522615
    72  C   -0.073087
    73  H    0.120619
    74  C   -0.443556
    75  H    0.149340
    76  H    0.154626
    77  H    0.144114
    78  C   -0.456675
    79  H    0.148282
    80  H    0.143367
    81  H    0.158720
    82  N   -0.669958
    83  H    0.376935
    84  C   -0.010237
    85  H    0.193614
    86  C    0.632023
    87  C   -0.327452
    88  H    0.144382
    89  H    0.169334
    90  O   -0.546683
    91  C   -0.392779
    92  H    0.203505
    93  H    0.245968
    94  C    0.614533
    95  O   -0.513899
    96  O   -0.539903
    97  N   -0.639776
    98  H    0.395416
    99  C   -0.067543
   100  H    0.212422
   101  C    0.603233
   102  C   -0.286021
   103  H    0.179433
   104  H    0.151730
   105  O   -0.455645
   106  C   -0.334580
   107  H    0.227616
   108  H    0.158556
   109  C   -0.150646
   110  H    0.173108
   111  H    0.148296
   112  N   -0.622601
   113  H    0.422208
   114  N   -0.757985
   115  H    0.367429
   116  H    0.371088
   117  N   -0.785636
   118  H    0.349129
   119  H    0.415811
   120  C    0.764548
   121  O   -0.568409
   122  H    0.427432
   123  H    0.416690
 Sum of Mulliken charges =   1.00000

 Dipole moment (field-independent basis, Debye):
    X=             -8.3920    Y=              2.9052    Z=             -8.4964  Tot=             12.2904
 Quadrupole moment (field-independent basis, Debye-Ang):
   XX=           -223.9549   YY=           -314.0211   ZZ=           -271.6645
   XY=            -43.6042   XZ=            -36.8480   YZ=             12.3535

 Normal termination of Gaussian 16 at Sun Aug  7 18:57:27 2022.
