 Gaussian 16, Revision C.01,
 Gaussian 16:  ES64L-G16RevC.01  3-Jul-2019

 ----------------------------------------------------------------------
 # B3LYP/6-31G* empiricaldispersion=gd3bj guess=read geom=check nosymm
 integral(ultrafinegrid)
 ----------------------------------------------------------------------

 ------------------------------------------------------
 Candidate Structure: Conf:205 Charge calc in gas phase
 ------------------------------------------------------
 Structure from the checkpoint file:  "conf-205.chk"
 Charge =  1 Multiplicity = 1

                          Input orientation:
 ---------------------------------------------------------------------
 Center     Atomic      Atomic             Coordinates (Angstroms)
 Number     Number       Type             X           Y           Z
 ---------------------------------------------------------------------
      1          7           0       -9.675489    4.804330    0.757450
      2          1           0       -9.481653    4.322721   -0.124998
      3          1           0      -10.080916    5.729786    0.556329
      4          1           0      -10.313317    4.186964    1.323036
      5          6           0       -8.458693    4.920011    1.634220
      6          1           0       -7.569198    4.971659    1.003839
      7          6           0       -8.501871    3.627501    2.477299
      8          6           0       -8.570435    6.188283    2.498550
      9          1           0       -7.691920    6.228845    3.149770
     10          1           0       -9.447117    6.092298    3.151146
     11          8           0       -9.591328    3.034077    2.545758
     12          6           0       -8.691215    7.422624    1.631075
     13          6           0       -7.600758    7.873490    0.873051
     14          1           0       -6.642099    7.363417    0.943031
     15          6           0       -9.920440    8.088975    1.522412
     16          1           0      -10.772147    7.752284    2.110910
     17          6           0       -7.732366    8.981033    0.039646
     18          1           0       -6.877292    9.328433   -0.531896
     19          6           0      -10.054818    9.194601    0.675683
     20          1           0      -11.010418    9.705117    0.602783
     21          6           0       -8.961946    9.641658   -0.062276
     22          1           0       -9.061712   10.504257   -0.713850
     23          7           0       -7.368843    3.309326    3.067387
     24          1           0       -6.507192    3.854189    2.946579
     25          6           0       -7.118552    2.144110    3.910518
     26          1           0       -7.903833    2.045056    4.667746
     27          6           0       -5.753338    2.458092    4.544836
     28          6           0       -7.038392    0.856223    3.071559
     29          1           0       -6.744956    0.006919    3.693678
     30          1           0       -6.283595    0.969340    2.288578
     31          1           0       -8.010793    0.656025    2.612595
     32          8           0       -5.065649    3.348821    4.044090
     33          7           0       -5.364282    1.702338    5.598745
     34          1           0       -5.908425    0.864298    5.783411
     35          6           0       -3.926767    1.483203    5.779545
     36          1           0       -3.436555    2.314246    5.269698
     37          6           0       -3.595536    0.152843    5.063727
     38          6           0       -3.519627    1.430972    7.253526
     39          1           0       -2.439407    1.279933    7.338237
     40          1           0       -4.019269    0.600675    7.765752
     41          1           0       -3.787592    2.363779    7.758973
     42          8           0       -4.479497   -0.693561    4.886275
     43          7           0       -2.312596    0.011579    4.702773
     44          1           0       -1.681085    0.806894    4.744240
     45          6           0       -1.819695   -1.071633    3.870200
     46          1           0       -2.003678   -2.031614    4.369108
     47          6           0       -0.312111   -0.832320    3.726638
     48          6           0       -2.540927   -1.118676    2.485901
     49          1           0       -2.076436   -1.917842    1.894202
     50          1           0       -3.568640   -1.431903    2.693417
     51          8           0        0.207481    0.195297    4.160908
     52          6           0       -2.522273    0.180249    1.733316
     53          6           0       -3.555955    1.122133    1.884492
     54          1           0       -4.369914    0.888747    2.569626
     55          6           0       -1.488208    0.510402    0.838930
     56          1           0       -0.683138   -0.205382    0.705202
     57          6           0       -3.580492    2.313469    1.182150
     58          1           0       -4.392242    3.022903    1.325821
     59          6           0       -1.487148    1.693241    0.121104
     60          1           0       -0.684066    1.924086   -0.570847
     61          8           0       -2.582158    3.736669   -0.459611
     62          6           0       -2.551978    2.671343    0.227400
     63          7           0        0.398128   -1.800106    3.064577
     64          1           0       -0.137225   -2.455102    2.501911
     65          6           0        1.677906   -1.463162    2.446374
     66          1           0        1.842027   -0.402074    2.652255
     67          6           0        1.521360   -1.633832    0.924341
     68          6           0        2.848313   -2.302547    2.984317
     69          1           0        2.654132   -3.358461    2.750287
     70          1           0        3.760633   -2.023080    2.436562
     71          8           0        0.588093   -2.268414    0.431473
     72          6           0        3.097875   -2.150038    4.493839
     73          1           0        2.161019   -2.395639    5.012438
     74          6           0        4.170702   -3.151940    4.942156
     75          1           0        5.125065   -2.955712    4.435247
     76          1           0        4.347409   -3.082458    6.021528
     77          1           0        3.877026   -4.184071    4.715037
     78          6           0        3.496384   -0.717890    4.874496
     79          1           0        4.422617   -0.422992    4.361404
     80          1           0        2.711805    0.001632    4.623835
     81          1           0        3.679740   -0.644867    5.952685
     82          7           0        2.453187   -1.003267    0.165642
     83          1           0        3.168337   -0.424333    0.590240
     84          6           0        2.286029   -0.829446   -1.271717
     85          1           0        1.971738   -1.783719   -1.707008
     86          6           0        3.635673   -0.387616   -1.816588
     87          6           0        1.208211    0.247705   -1.540264
     88          1           0        0.328780   -0.042641   -0.963975
     89          1           0        1.566146    1.197471   -1.133599
     90          8           0        4.390230    0.330412   -1.168551
     91          6           0        0.802517    0.430790   -3.010086
     92          1           0        0.433144   -0.503031   -3.445199
     93          1           0        1.645966    0.773233   -3.623459
     94          6           0       -0.318516    1.447590   -3.150014
     95          8           0       -1.318055    1.298157   -3.815326
     96          8           0       -0.057770    2.559164   -2.430065
     97          7           0        3.949125   -0.846500   -3.073705
     98          1           0        3.200363   -1.248928   -3.626691
     99          6           0        5.037597   -0.240794   -3.815108
    100          1           0        5.670606    0.265343   -3.083661
    101          6           0        4.481016    0.785861   -4.799853
    102          6           0        5.846184   -1.319775   -4.561911
    103          1           0        5.194007   -1.817563   -5.292143
    104          1           0        6.123763   -2.075327   -3.816449
    105          8           0        3.425476    0.663951   -5.379980
    106          6           0        7.103064   -0.780660   -5.254800
    107          1           0        7.715537   -0.230551   -4.528205
    108          1           0        6.839499   -0.057788   -6.034814
    109          6           0        7.919512   -1.919688   -5.883830
    110          1           0        7.323466   -2.431527   -6.644750
    111          1           0        8.182843   -2.682929   -5.141477
    112          7           0        9.149698   -1.483738   -6.550385
    113          1           0        9.018662   -1.056617   -7.461381
    114          7           0       10.359858   -1.095841   -4.546977
    115          1           0       11.270182   -1.169724   -4.110642
    116          1           0        9.589346   -1.444295   -3.996995
    117          7           0       11.319012   -0.630109   -6.639764
    118          1           0       12.187212   -0.414896   -6.168074
    119          1           0       11.435918   -1.013470   -7.570880
    120          6           0       10.272275   -1.093527   -5.899794
    121          8           0        5.321815    1.825155   -4.985482
    122          1           0       -0.839797    3.144689   -2.485472
    123          1           0        4.901045    2.415103   -5.643378
 ---------------------------------------------------------------------

 SCF Done:  E(RB3LYP) =  -2974.19184999     A.U. after    3 cycles

 Alpha  occ. eigenvalues --  -19.28471 -19.22588 -19.22339 -19.20291 -19.18970
 Alpha  occ. eigenvalues --  -19.18217 -19.16026 -19.15460 -19.14937 -19.14862
 Alpha  occ. eigenvalues --  -19.04616 -14.56562 -14.51815 -14.51567 -14.51187
 Alpha  occ. eigenvalues --  -14.44973 -14.43823 -14.41099 -14.40537 -14.38855
 Alpha  occ. eigenvalues --  -14.38584 -10.46425 -10.40482 -10.39200 -10.36785
 Alpha  occ. eigenvalues --  -10.35906 -10.35859 -10.34888 -10.33435 -10.32971
 Alpha  occ. eigenvalues --  -10.32402 -10.32179 -10.31760 -10.30761 -10.30636
 Alpha  occ. eigenvalues --  -10.30586 -10.29752 -10.29218 -10.28757 -10.28144
 Alpha  occ. eigenvalues --  -10.27614 -10.27547 -10.27346 -10.27199 -10.27153
 Alpha  occ. eigenvalues --  -10.26627 -10.25921 -10.23263 -10.22988 -10.22648
 Alpha  occ. eigenvalues --  -10.22398 -10.22370 -10.21850 -10.20437 -10.19903
 Alpha  occ. eigenvalues --  -10.19692 -10.19566 -10.16643 -10.16260 -10.16206
 Alpha  occ. eigenvalues --  -10.14763 -10.13995  -1.19212  -1.15433  -1.15003
 Alpha  occ. eigenvalues --   -1.11364  -1.11097  -1.10690  -1.10206  -1.10072
 Alpha  occ. eigenvalues --   -1.08110  -1.07223  -1.06343  -1.05522  -1.04310
 Alpha  occ. eigenvalues --   -1.02477  -1.02015  -1.00616  -0.97874  -0.97194
 Alpha  occ. eigenvalues --   -0.95754  -0.95370  -0.94822  -0.93419  -0.91531
 Alpha  occ. eigenvalues --   -0.90116  -0.86240  -0.85374  -0.84671  -0.83577
 Alpha  occ. eigenvalues --   -0.83156  -0.82906  -0.82195  -0.80690  -0.80339
 Alpha  occ. eigenvalues --   -0.79329  -0.77719  -0.76980  -0.76440  -0.75710
 Alpha  occ. eigenvalues --   -0.73354  -0.73057  -0.72847  -0.71486  -0.71435
 Alpha  occ. eigenvalues --   -0.70913  -0.70618  -0.70183  -0.69747  -0.69448
 Alpha  occ. eigenvalues --   -0.69371  -0.68917  -0.68675  -0.67244  -0.66887
 Alpha  occ. eigenvalues --   -0.66443  -0.65894  -0.64994  -0.64767  -0.64056
 Alpha  occ. eigenvalues --   -0.63621  -0.62936  -0.62405  -0.62270  -0.61787
 Alpha  occ. eigenvalues --   -0.60876  -0.60157  -0.59934  -0.59760  -0.59624
 Alpha  occ. eigenvalues --   -0.59387  -0.58543  -0.58018  -0.57708  -0.57480
 Alpha  occ. eigenvalues --   -0.56677  -0.56265  -0.55493  -0.55180  -0.54723
 Alpha  occ. eigenvalues --   -0.54389  -0.54270  -0.53984  -0.53818  -0.53347
 Alpha  occ. eigenvalues --   -0.52877  -0.52006  -0.51743  -0.51460  -0.51224
 Alpha  occ. eigenvalues --   -0.51044  -0.50898  -0.50613  -0.50507  -0.50368
 Alpha  occ. eigenvalues --   -0.50152  -0.49951  -0.49739  -0.49185  -0.48539
 Alpha  occ. eigenvalues --   -0.48476  -0.48278  -0.47958  -0.47727  -0.47556
 Alpha  occ. eigenvalues --   -0.47456  -0.47420  -0.47091  -0.46586  -0.46258
 Alpha  occ. eigenvalues --   -0.46043  -0.45653  -0.45427  -0.45315  -0.45090
 Alpha  occ. eigenvalues --   -0.44937  -0.44652  -0.44525  -0.44237  -0.43622
 Alpha  occ. eigenvalues --   -0.43377  -0.43339  -0.42968  -0.42904  -0.42719
 Alpha  occ. eigenvalues --   -0.42640  -0.42609  -0.42153  -0.41952  -0.41706
 Alpha  occ. eigenvalues --   -0.41314  -0.41024  -0.40809  -0.40709  -0.40531
 Alpha  occ. eigenvalues --   -0.40370  -0.40251  -0.39865  -0.39808  -0.39143
 Alpha  occ. eigenvalues --   -0.38546  -0.38222  -0.38139  -0.37148  -0.37006
 Alpha  occ. eigenvalues --   -0.36371  -0.35964  -0.35701  -0.35493  -0.35262
 Alpha  occ. eigenvalues --   -0.34923  -0.34313  -0.33916  -0.33831  -0.33332
 Alpha  occ. eigenvalues --   -0.33183  -0.32554  -0.32346  -0.32164  -0.31627
 Alpha  occ. eigenvalues --   -0.31002  -0.30288  -0.30103  -0.29527  -0.28773
 Alpha  occ. eigenvalues --   -0.28609  -0.28170  -0.27961  -0.27208  -0.22383
 Alpha  occ. eigenvalues --   -0.18283  -0.14395
 Alpha virt. eigenvalues --   -0.13676  -0.09961  -0.09250  -0.08613  -0.08073
 Alpha virt. eigenvalues --   -0.07235  -0.06582  -0.05084  -0.04984  -0.04191
 Alpha virt. eigenvalues --   -0.03876  -0.03026  -0.02176  -0.01661  -0.01324

 Mulliken charges:
               1
     1  N   -0.742489
     2  H    0.418634
     3  H    0.401965
     4  H    0.420715
     5  C   -0.130038
     6  H    0.229652
     7  C    0.668314
     8  C   -0.379263
     9  H    0.215915
    10  H    0.183606
    11  O   -0.555638
    12  C    0.132480
    13  C   -0.184899
    14  H    0.164136
    15  C   -0.219787
    16  H    0.143125
    17  C   -0.124652
    18  H    0.167412
    19  C   -0.122228
    20  H    0.158683
    21  C   -0.124894
    22  H    0.160849
    23  N   -0.616226
    24  H    0.390391
    25  C   -0.058039
    26  H    0.184145
    27  C    0.623381
    28  C   -0.475519
    29  H    0.197378
    30  H    0.197615
    31  H    0.171277
    32  O   -0.519035
    33  N   -0.577948
    34  H    0.342719
    35  C   -0.102657
    36  H    0.208035
    37  C    0.647154
    38  C   -0.446662
    39  H    0.169894
    40  H    0.158752
    41  H    0.165974
    42  O   -0.563396
    43  N   -0.606766
    44  H    0.363741
    45  C   -0.026827
    46  H    0.167868
    47  C    0.619179
    48  C   -0.408810
    49  H    0.147496
    50  H    0.175526
    51  O   -0.528859
    52  C    0.140989
    53  C   -0.197636
    54  H    0.087496
    55  C   -0.199864
    56  H    0.109891
    57  C   -0.207017
    58  H    0.043976
    59  C   -0.260791
    60  H    0.127444
    61  O   -0.668636
    62  C    0.419321
    63  N   -0.605122
    64  H    0.350757
    65  C   -0.087247
    66  H    0.195190
    67  C    0.632631
    68  C   -0.249930
    69  H    0.138569
    70  H    0.124750
    71  O   -0.540288
    72  C   -0.064962
    73  H    0.142845
    74  C   -0.442775
    75  H    0.131807
    76  H    0.146095
    77  H    0.139172
    78  C   -0.468121
    79  H    0.123819
    80  H    0.185833
    81  H    0.142883
    82  N   -0.618629
    83  H    0.351534
    84  C   -0.038674
    85  H    0.170188
    86  C    0.609837
    87  C   -0.295155
    88  H    0.217026
    89  H    0.184206
    90  O   -0.522065
    91  C   -0.377807
    92  H    0.164504
    93  H    0.175715
    94  C    0.582686
    95  O   -0.457457
    96  O   -0.560523
    97  N   -0.605306
    98  H    0.349228
    99  C   -0.050911
   100  H    0.209175
   101  C    0.590278
   102  C   -0.282349
   103  H    0.165184
   104  H    0.166264
   105  O   -0.448623
   106  C   -0.284122
   107  H    0.157550
   108  H    0.170073
   109  C   -0.185785
   110  H    0.198371
   111  H    0.175814
   112  N   -0.576397
   113  H    0.362125
   114  N   -0.738573
   115  H    0.372296
   116  H    0.381740
   117  N   -0.741271
   118  H    0.370510
   119  H    0.372172
   120  C    0.725123
   121  O   -0.560097
   122  H    0.425655
   123  H    0.424030
 Sum of Mulliken charges =   1.00000

 Dipole moment (field-independent basis, Debye):
    X=             15.6672    Y=              7.1367    Z=            -18.7244  Tot=             25.4362
 Quadrupole moment (field-independent basis, Debye-Ang):
   XX=            320.1597   YY=           -253.6799   ZZ=           -200.5849
   XY=           -221.0523   XZ=           -269.1432   YZ=             37.1595

 Normal termination of Gaussian 16 at Sun Aug  7 18:56:24 2022.
