 Gaussian 16, Revision C.01,
 Gaussian 16:  ES64L-G16RevC.01  3-Jul-2019

 ----------------------------------------------------------------------
 # B3LYP/6-31G* empiricaldispersion=gd3bj guess=read geom=check nosymm
 integral(ultrafinegrid)
 ----------------------------------------------------------------------

 ------------------------------------------------------
 Candidate Structure: Conf:981 Charge calc in gas phase
 ------------------------------------------------------
 Structure from the checkpoint file:  "conf-981.chk"
 Charge =  1 Multiplicity = 1

                          Input orientation:
 ---------------------------------------------------------------------
 Center     Atomic      Atomic             Coordinates (Angstroms)
 Number     Number       Type             X           Y           Z
 ---------------------------------------------------------------------
      1          7           0      -10.494572    4.524530    5.075531
      2          1           0      -11.229843    3.875654    4.798159
      3          1           0      -10.832887    5.136574    5.814640
      4          1           0       -9.714221    3.969275    5.443159
      5          6           0       -9.967654    5.275465    3.922149
      6          1           0      -10.790867    5.550376    3.250547
      7          6           0       -9.030676    4.335068    3.168127
      8          6           0       -9.248661    6.558903    4.370085
      9          1           0      -10.010710    7.285012    4.671477
     10          1           0       -8.716191    6.982172    3.514453
     11          8           0       -8.613870    3.303117    3.688748
     12          6           0       -8.312609    6.326371    5.523384
     13          6           0       -8.718515    6.600862    6.829009
     14          1           0       -9.698197    7.031489    7.000928
     15          6           0       -7.045365    5.779794    5.323180
     16          1           0       -6.716794    5.590606    4.306172
     17          6           0       -7.888627    6.323635    7.911784
     18          1           0       -8.228993    6.541092    8.917865
     19          6           0       -6.214303    5.495909    6.404680
     20          1           0       -5.241475    5.068993    6.214906
     21          6           0       -6.631807    5.765569    7.703110
     22          1           0       -5.985569    5.543644    8.545633
     23          7           0       -8.680927    4.717019    1.918356
     24          1           0       -9.126292    5.524197    1.516878
     25          6           0       -8.012351    3.799936    1.000633
     26          1           0       -8.304286    2.788455    1.305787
     27          6           0       -6.494019    3.913740    1.171724
     28          6           0       -8.442365    4.077939   -0.426992
     29          1           0       -7.929320    3.402241   -1.111653
     30          1           0       -8.191509    5.102453   -0.706494
     31          1           0       -9.519376    3.926183   -0.527133
     32          8           0       -5.753895    4.312206    0.278422
     33          7           0       -6.014418    3.564432    2.394630
     34          1           0       -6.633183    3.047270    3.007633
     35          6           0       -4.593656    3.316174    2.549171
     36          1           0       -4.076013    4.150211    2.065587
     37          6           0       -4.203554    2.014748    1.834000
     38          6           0       -4.231233    3.250717    4.024441
     39          1           0       -3.153051    3.152460    4.165704
     40          1           0       -4.725761    2.399185    4.495235
     41          1           0       -4.567848    4.166267    4.519006
     42          8           0       -4.975309    1.079241    1.707624
     43          7           0       -2.930530    1.984783    1.367578
     44          1           0       -2.245348    2.678872    1.623186
     45          6           0       -2.385923    0.820939    0.707021
     46          1           0       -2.609539   -0.068922    1.305658
     47          6           0       -0.868598    1.034023    0.668591
     48          6           0       -2.994195    0.580616   -0.690751
     49          1           0       -2.643746   -0.391891   -1.045145
     50          1           0       -4.072317    0.514584   -0.546170
     51          8           0       -0.334386    2.020771    1.149070
     52          6           0       -2.682261    1.632103   -1.694292
     53          6           0       -3.354755    2.874539   -1.654265
     54          1           0       -4.110628    3.045288   -0.890026
     55          6           0       -1.722507    1.418158   -2.705866
     56          1           0       -1.239300    0.448531   -2.767256
     57          6           0       -3.089751    3.874413   -2.552419
     58          1           0       -3.606112    4.825325   -2.511667
     59          6           0       -1.427388    2.391658   -3.621508
     60          1           0       -0.712865    2.244786   -4.411044
     61          8           0       -1.827941    4.562439   -4.414963
     62          6           0       -2.093441    3.679680   -3.596472
     63          7           0       -0.164188    0.051465    0.065911
     64          1           0       -0.617381   -0.747793   -0.348658
     65          6           0        1.267348    0.149142   -0.122756
     66          1           0        1.517245    1.211131   -0.187410
     67          6           0        1.580584   -0.561436   -1.428284
     68          6           0        2.029213   -0.479899    1.049033
     69          1           0        1.736816    0.059004    1.951669
     70          1           0        1.677921   -1.508565    1.158617
     71          8           0        1.041634   -1.618891   -1.726261
     72          6           0        3.556403   -0.495351    0.932914
     73          1           0        3.827507   -1.030008    0.016537
     74          6           0        4.141815    0.910170    0.866655
     75          1           0        3.894665    1.462842    1.777266
     76          1           0        5.230259    0.868984    0.773114
     77          1           0        3.770793    1.481251    0.012463
     78          6           0        4.140280   -1.260642    2.118402
     79          1           0        3.868580   -0.768856    3.055278
     80          1           0        3.762846   -2.284959    2.147583
     81          1           0        5.229870   -1.305237    2.060391
     82          7           0        2.497567    0.062030   -2.210713
     83          1           0        3.052190    0.805426   -1.819039
     84          6           0        3.101712   -0.569816   -3.361377
     85          1           0        2.761840   -1.604281   -3.403731
     86          6           0        4.614287   -0.497838   -3.162146
     87          6           0        2.708530    0.148167   -4.653700
     88          1           0        3.143572    1.151211   -4.641671
     89          1           0        3.147350   -0.379887   -5.499471
     90          8           0        5.132007    0.314937   -2.417834
     91          6           0        1.198984    0.274371   -4.851826
     92          1           0        0.997440    0.893559   -5.732537
     93          1           0        0.720412    0.767141   -4.005711
     94          6           0        0.477755   -1.022383   -5.064400
     95          8           0       -0.604140   -1.301830   -4.609692
     96          8           0        1.150862   -1.855233   -5.890243
     97          7           0        5.342075   -1.389616   -3.887961
     98          1           0        4.880846   -1.874312   -4.634428
     99          6           0        6.782215   -1.225469   -4.011284
    100          1           0        7.194009   -1.061940   -3.013102
    101          6           0        7.145452   -0.004408   -4.833866
    102          6           0        7.388812   -2.494751   -4.619660
    103          1           0        6.979290   -2.647552   -5.615742
    104          1           0        7.053652   -3.330280   -3.999926
    105          8           0        8.157987    0.636091   -4.699094
    106          6           0        8.908692   -2.481365   -4.658743
    107          1           0        9.290981   -2.237193   -3.661539
    108          1           0        9.273715   -1.699311   -5.324758
    109          6           0        9.476579   -3.819678   -5.087197
    110          1           0        9.088900   -4.603350   -4.433664
    111          1           0       10.568893   -3.821781   -4.995835
    112          7           0        9.070361   -4.108388   -6.480215
    113          1           0        9.091343   -3.304411   -7.090625
    114          7           0        9.765829   -6.335186   -6.371100
    115          1           0       10.235033   -7.079462   -6.863700
    116          1           0       10.116932   -6.152685   -5.443546
    117          7           0        9.200298   -5.366524   -8.432369
    118          1           0        9.068761   -6.304379   -8.784693
    119          1           0        8.566680   -4.695038   -8.848719
    120          6           0        9.358959   -5.266781   -7.086586
    121          8           0        6.228680    0.277108   -5.788268
    122          1           0        0.597945   -2.640206   -5.989705
    123          1           0        6.574751    1.034695   -6.274843
 ---------------------------------------------------------------------

 SCF Done:  E(RB3LYP) =  -2974.14107456     A.U. after    1 cycles

 Alpha  occ. eigenvalues --  -19.27004 -19.24276 -19.22776 -19.21236 -19.18518
 Alpha  occ. eigenvalues --  -19.16679 -19.16155 -19.15247 -19.13783 -19.13723
 Alpha  occ. eigenvalues --  -19.03668 -14.60556 -14.49676 -14.49614 -14.49296
 Alpha  occ. eigenvalues --  -14.47404 -14.43225 -14.40358 -14.39671 -14.37761
 Alpha  occ. eigenvalues --  -14.37172 -10.43335 -10.41018 -10.39570 -10.39201
 Alpha  occ. eigenvalues --  -10.35103 -10.34681 -10.34409 -10.33719 -10.32546
 Alpha  occ. eigenvalues --  -10.32087 -10.31812 -10.30993 -10.30657 -10.30581
 Alpha  occ. eigenvalues --  -10.29681 -10.29426 -10.29029 -10.28778 -10.28100
 Alpha  occ. eigenvalues --  -10.27945 -10.27788 -10.27677 -10.27592 -10.27055
 Alpha  occ. eigenvalues --  -10.25532 -10.24692 -10.24372 -10.23886 -10.23595
 Alpha  occ. eigenvalues --  -10.22544 -10.21786 -10.20933 -10.20290 -10.20016
 Alpha  occ. eigenvalues --  -10.18426 -10.18412 -10.15202 -10.15099 -10.14659
 Alpha  occ. eigenvalues --  -10.13271 -10.13164  -1.18269  -1.17934  -1.14642
 Alpha  occ. eigenvalues --   -1.14205  -1.13760  -1.11110  -1.09067  -1.08825
 Alpha  occ. eigenvalues --   -1.07615  -1.06504  -1.05765  -1.04167  -1.04061
 Alpha  occ. eigenvalues --   -1.03917  -1.02879  -1.00543  -0.97192  -0.97107
 Alpha  occ. eigenvalues --   -0.96124  -0.94986  -0.94274  -0.94167  -0.92373
 Alpha  occ. eigenvalues --   -0.91121  -0.86539  -0.85974  -0.84697  -0.84178
 Alpha  occ. eigenvalues --   -0.83904  -0.83724  -0.82278  -0.80943  -0.79444
 Alpha  occ. eigenvalues --   -0.78705  -0.78486  -0.76995  -0.76132  -0.75479
 Alpha  occ. eigenvalues --   -0.74383  -0.73903  -0.73211  -0.72805  -0.71388
 Alpha  occ. eigenvalues --   -0.71236  -0.71060  -0.70615  -0.70508  -0.69996
 Alpha  occ. eigenvalues --   -0.69601  -0.69088  -0.68563  -0.68083  -0.67652
 Alpha  occ. eigenvalues --   -0.67218  -0.65687  -0.65144  -0.63815  -0.63423
 Alpha  occ. eigenvalues --   -0.62767  -0.62718  -0.62401  -0.61972  -0.61752
 Alpha  occ. eigenvalues --   -0.61521  -0.61182  -0.59681  -0.59501  -0.59204
 Alpha  occ. eigenvalues --   -0.59003  -0.58623  -0.58317  -0.57603  -0.57163
 Alpha  occ. eigenvalues --   -0.56615  -0.56515  -0.56329  -0.55608  -0.55471
 Alpha  occ. eigenvalues --   -0.55095  -0.54595  -0.54096  -0.53589  -0.53252
 Alpha  occ. eigenvalues --   -0.52929  -0.52622  -0.52386  -0.52092  -0.51643
 Alpha  occ. eigenvalues --   -0.51592  -0.50969  -0.50756  -0.50643  -0.50171
 Alpha  occ. eigenvalues --   -0.50028  -0.49652  -0.49450  -0.49191  -0.49095
 Alpha  occ. eigenvalues --   -0.48762  -0.48571  -0.47854  -0.47582  -0.47292
 Alpha  occ. eigenvalues --   -0.47123  -0.46903  -0.46630  -0.46283  -0.46040
 Alpha  occ. eigenvalues --   -0.45643  -0.45501  -0.45304  -0.45264  -0.45148
 Alpha  occ. eigenvalues --   -0.44878  -0.44654  -0.44400  -0.44288  -0.44004
 Alpha  occ. eigenvalues --   -0.43634  -0.43457  -0.43272  -0.43165  -0.42821
 Alpha  occ. eigenvalues --   -0.42663  -0.42100  -0.41891  -0.41480  -0.41317
 Alpha  occ. eigenvalues --   -0.41189  -0.41145  -0.40915  -0.40422  -0.40349
 Alpha  occ. eigenvalues --   -0.39763  -0.39552  -0.39368  -0.39142  -0.39043
 Alpha  occ. eigenvalues --   -0.38750  -0.38558  -0.37996  -0.37525  -0.37479
 Alpha  occ. eigenvalues --   -0.37064  -0.36308  -0.36048  -0.35539  -0.35392
 Alpha  occ. eigenvalues --   -0.34536  -0.34499  -0.34415  -0.34116  -0.33701
 Alpha  occ. eigenvalues --   -0.32720  -0.31987  -0.31543  -0.31356  -0.30607
 Alpha  occ. eigenvalues --   -0.29915  -0.29767  -0.29515  -0.29218  -0.28038
 Alpha  occ. eigenvalues --   -0.27728  -0.27278  -0.26621  -0.26163  -0.21416
 Alpha  occ. eigenvalues --   -0.16909  -0.12596
 Alpha virt. eigenvalues --   -0.11904  -0.11648  -0.10263  -0.10017  -0.08668
 Alpha virt. eigenvalues --   -0.07045  -0.06767  -0.05314  -0.04429  -0.04165
 Alpha virt. eigenvalues --   -0.03446  -0.03409  -0.02056  -0.01388  -0.01321

 Mulliken charges:
               1
     1  N   -0.701335
     2  H    0.412601
     3  H    0.401815
     4  H    0.431118
     5  C   -0.136102
     6  H    0.208826
     7  C    0.646269
     8  C   -0.391537
     9  H    0.181605
    10  H    0.210791
    11  O   -0.538471
    12  C    0.134956
    13  C   -0.221419
    14  H    0.123587
    15  C   -0.188071
    16  H    0.167824
    17  C   -0.125680
    18  H    0.155584
    19  C   -0.131997
    20  H    0.168160
    21  C   -0.124625
    22  H    0.162237
    23  N   -0.587934
    24  H    0.341998
    25  C   -0.086190
    26  H    0.200690
    27  C    0.636327
    28  C   -0.470638
    29  H    0.217211
    30  H    0.176173
    31  H    0.142986
    32  O   -0.485517
    33  N   -0.606744
    34  H    0.357883
    35  C   -0.059501
    36  H    0.189121
    37  C    0.631601
    38  C   -0.482858
    39  H    0.176919
    40  H    0.162101
    41  H    0.154890
    42  O   -0.545453
    43  N   -0.608642
    44  H    0.352072
    45  C   -0.023759
    46  H    0.157191
    47  C    0.634788
    48  C   -0.385372
    49  H    0.131788
    50  H    0.174803
    51  O   -0.546561
    52  C    0.140955
    53  C   -0.189867
    54  H    0.127330
    55  C   -0.203593
    56  H    0.119969
    57  C   -0.221675
    58  H    0.095147
    59  C   -0.219569
    60  H    0.080561
    61  O   -0.597679
    62  C    0.414541
    63  N   -0.625150
    64  H    0.352310
    65  C   -0.043602
    66  H    0.183693
    67  C    0.616821
    68  C   -0.249934
    69  H    0.156205
    70  H    0.140436
    71  O   -0.541288
    72  C   -0.092083
    73  H    0.124175
    74  C   -0.438544
    75  H    0.146893
    76  H    0.148194
    77  H    0.140024
    78  C   -0.440960
    79  H    0.144464
    80  H    0.140615
    81  H    0.137242
    82  N   -0.599948
    83  H    0.364218
    84  C   -0.091499
    85  H    0.187345
    86  C    0.636755
    87  C   -0.268253
    88  H    0.160762
    89  H    0.148882
    90  O   -0.519418
    91  C   -0.366836
    92  H    0.194468
    93  H    0.224617
    94  C    0.587686
    95  O   -0.442039
    96  O   -0.582097
    97  N   -0.611808
    98  H    0.338322
    99  C   -0.025423
   100  H    0.210231
   101  C    0.594992
   102  C   -0.298612
   103  H    0.149834
   104  H    0.171775
   105  O   -0.453460
   106  C   -0.312398
   107  H    0.186796
   108  H    0.176995
   109  C   -0.165446
   110  H    0.179215
   111  H    0.179829
   112  N   -0.587723
   113  H    0.350382
   114  N   -0.741124
   115  H    0.366875
   116  H    0.374734
   117  N   -0.738545
   118  H    0.362494
   119  H    0.361450
   120  C    0.694557
   121  O   -0.570312
   122  H    0.407281
   123  H    0.423308
 Sum of Mulliken charges =   1.00000

 Dipole moment (field-independent basis, Debye):
    X=             -1.0135    Y=             -7.8567    Z=              1.7051  Tot=              8.1032
 Quadrupole moment (field-independent basis, Debye-Ang):
   XX=            353.8340   YY=           -199.9894   ZZ=            -90.2805
   XY=           -373.0920   XZ=           -442.2989   YZ=            266.6508

 Normal termination of Gaussian 16 at Sun Aug  7 19:01:03 2022.
