 Gaussian 16, Revision C.01,
 Gaussian 16:  ES64L-G16RevC.01  3-Jul-2019

 ----------------------------------------------------------------------
 # B3LYP/6-31G* empiricaldispersion=gd3bj guess=read geom=check nosymm
 integral(ultrafinegrid)
 ----------------------------------------------------------------------

 ------------------------------------------------------
 Candidate Structure: Conf:231 Charge calc in gas phase
 ------------------------------------------------------
 Structure from the checkpoint file:  "conf-231.chk"
 Charge =  1 Multiplicity = 1

                          Input orientation:
 ---------------------------------------------------------------------
 Center     Atomic      Atomic             Coordinates (Angstroms)
 Number     Number       Type             X           Y           Z
 ---------------------------------------------------------------------
      1          7           0      -10.910783    6.937397    0.218871
      2          1           0      -11.222857    6.502667   -0.651450
      3          1           0      -11.177853    7.920722    0.212300
      4          1           0      -11.388175    6.451355    0.988761
      5          6           0       -9.452932    6.753247    0.432387
      6          1           0       -8.908267    7.027221   -0.474776
      7          6           0       -9.244222    5.275740    0.770034
      8          6           0       -8.954149    7.626858    1.592792
      9          1           0       -9.489383    7.324610    2.497017
     10          1           0       -9.224404    8.665262    1.373059
     11          8           0      -10.122057    4.654174    1.360925
     12          6           0       -7.465808    7.488843    1.790086
     13          6           0       -6.954580    6.685429    2.809110
     14          1           0       -7.636411    6.152820    3.466123
     15          6           0       -6.581127    8.125815    0.919431
     16          1           0       -6.981284    8.733979    0.112255
     17          6           0       -5.576469    6.543365    2.967139
     18          1           0       -5.190100    5.914807    3.763576
     19          6           0       -5.203912    7.985682    1.076808
     20          1           0       -4.530385    8.494856    0.397295
     21          6           0       -4.698600    7.194649    2.105140
     22          1           0       -3.628106    7.085099    2.231795
     23          7           0       -8.055736    4.760526    0.414773
     24          1           0       -7.321275    5.358010    0.053662
     25          6           0       -7.605447    3.463633    0.895724
     26          1           0       -8.072500    3.271973    1.865972
     27          6           0       -6.093654    3.579869    1.053822
     28          6           0       -7.966226    2.336526   -0.072718
     29          1           0       -7.579959    1.382897    0.298077
     30          1           0       -7.520167    2.530478   -1.050649
     31          1           0       -9.050222    2.267966   -0.182757
     32          8           0       -5.422965    4.231853    0.264989
     33          7           0       -5.563477    2.912692    2.116928
     34          1           0       -6.113752    2.147020    2.476875
     35          6           0       -4.129525    2.672534    2.154177
     36          1           0       -3.653752    3.561084    1.735913
     37          6           0       -3.823245    1.456152    1.264032
     38          6           0       -3.664387    2.441008    3.587508
     39          1           0       -2.582834    2.291460    3.625992
     40          1           0       -4.149465    1.555623    4.009186
     41          1           0       -3.922364    3.305080    4.204238
     42          8           0       -4.675411    0.611447    1.018456
     43          7           0       -2.553227    1.374372    0.817526
     44          1           0       -1.840676    2.041973    1.076520
     45          6           0       -2.102031    0.249005    0.028872
     46          1           0       -2.540351   -0.666751    0.434497
     47          6           0       -0.580192    0.215517    0.153597
     48          6           0       -2.568497    0.345975   -1.452165
     49          1           0       -3.655609    0.436138   -1.418013
     50          1           0       -2.159699    1.251820   -1.910635
     51          8           0        0.035568    1.213408    0.540839
     52          6           0       -2.148932   -0.878358   -2.201132
     53          6           0       -1.017649   -0.885883   -3.034489
     54          1           0       -0.531475    0.053104   -3.274325
     55          6           0       -2.741008   -2.112800   -1.877844
     56          1           0       -3.622136   -2.105149   -1.234114
     57          6           0       -0.455918   -2.054424   -3.467476
     58          1           0        0.455812   -2.040604   -4.053859
     59          6           0       -2.197701   -3.305783   -2.280361
     60          1           0       -2.635355   -4.254597   -1.992201
     61          8           0       -0.417599   -4.412662   -3.381168
     62          6           0       -0.973923   -3.347579   -3.067094
     63          7           0        0.032425   -0.934446   -0.201904
     64          1           0       -0.491127   -1.589856   -0.782701
     65          6           0        1.493874   -1.022598   -0.289528
     66          1           0        1.876661   -0.444760    0.552501
     67          6           0        1.932042   -0.341615   -1.587062
     68          6           0        1.935288   -2.475420   -0.199782
     69          1           0        1.415861   -2.925509    0.651591
     70          1           0        1.595457   -2.992465   -1.102307
     71          8           0        2.297851   -0.963142   -2.592724
     72          6           0        3.444380   -2.688566   -0.033328
     73          1           0        3.945780   -2.171970   -0.861264
     74          6           0        3.965429   -2.123535    1.286932
     75          1           0        3.496395   -2.638626    2.132044
     76          1           0        5.047058   -2.264779    1.367622
     77          1           0        3.761842   -1.054176    1.387687
     78          6           0        3.759378   -4.181385   -0.141718
     79          1           0        3.249646   -4.738090    0.650390
     80          1           0        3.431736   -4.583760   -1.103556
     81          1           0        4.833315   -4.365839   -0.044618
     82          7           0        1.852444    1.007517   -1.566775
     83          1           0        1.481261    1.438224   -0.724421
     84          6           0        1.767773    1.787849   -2.795831
     85          1           0        1.336316    1.133914   -3.564117
     86          6           0        3.165356    2.196411   -3.279637
     87          6           0        0.854800    2.990533   -2.558132
     88          1           0        0.027002    2.666661   -1.918514
     89          1           0        1.417054    3.748570   -2.006080
     90          8           0        3.511502    3.356608   -3.453355
     91          6           0        0.275829    3.602575   -3.839931
     92          1           0        1.074296    3.889650   -4.524116
     93          1           0       -0.307692    4.490780   -3.585153
     94          6           0       -0.623922    2.603190   -4.511720
     95          8           0       -0.385775    1.982536   -5.516607
     96          8           0       -1.771948    2.415566   -3.799188
     97          7           0        4.002525    1.146604   -3.482731
     98          1           0        3.600332    0.214456   -3.474164
     99          6           0        5.299611    1.359922   -4.080498
    100          1           0        5.763781    2.225042   -3.597639
    101          6           0        5.157118    1.659645   -5.565401
    102          6           0        6.161213    0.107410   -3.868777
    103          1           0        5.711741   -0.721886   -4.423987
    104          1           0        6.098845   -0.141058   -2.804903
    105          8           0        4.305739    1.214102   -6.290368
    106          6           0        7.623195    0.273042   -4.266295
    107          1           0        8.048237    1.138609   -3.750333
    108          1           0        7.707843    0.466704   -5.338521
    109          6           0        8.431611   -0.964363   -3.909669
    110          1           0        8.015494   -1.845008   -4.416133
    111          1           0        8.364549   -1.138916   -2.831229
    112          7           0        9.845259   -0.769751   -4.278639
    113          1           0        9.988565   -0.225008   -5.118658
    114          7           0       10.486425   -2.834661   -3.375993
    115          1           0       11.235742   -3.380372   -2.979340
    116          1           0        9.601080   -2.889766   -2.899292
    117          7           0       12.007483   -1.544590   -4.610244
    118          1           0       12.751143   -2.143335   -4.283025
    119          1           0       12.293553   -0.594429   -4.805586
    120          6           0       10.777277   -1.716116   -4.066676
    121          8           0        6.153811    2.467106   -6.002044
    122          1           0       -2.265432    1.721049   -4.260058
    123          1           0        6.005841    2.582507   -6.952261
 ---------------------------------------------------------------------

 SCF Done:  E(RB3LYP) =  -2974.18017178     A.U. after    1 cycles

 Alpha  occ. eigenvalues --  -19.24848 -19.24548 -19.21625 -19.19573 -19.18735
 Alpha  occ. eigenvalues --  -19.16107 -19.16001 -19.15403 -19.15116 -19.14808
 Alpha  occ. eigenvalues --  -19.02716 -14.62415 -14.51105 -14.50612 -14.50475
 Alpha  occ. eigenvalues --  -14.47257 -14.42828 -14.39155 -14.38751 -14.38716
 Alpha  occ. eigenvalues --  -14.38415 -10.45723 -10.41651 -10.40267 -10.36567
 Alpha  occ. eigenvalues --  -10.36331 -10.34414 -10.34079 -10.33604 -10.32419
 Alpha  occ. eigenvalues --  -10.32182 -10.32062 -10.31733 -10.31377 -10.30130
 Alpha  occ. eigenvalues --  -10.29067 -10.28825 -10.28736 -10.28599 -10.28504
 Alpha  occ. eigenvalues --  -10.28053 -10.27940 -10.27768 -10.27020 -10.26162
 Alpha  occ. eigenvalues --  -10.25770 -10.25417 -10.25250 -10.24521 -10.22595
 Alpha  occ. eigenvalues --  -10.22562 -10.21405 -10.20442 -10.20066 -10.19594
 Alpha  occ. eigenvalues --  -10.19136 -10.18389 -10.15758 -10.15625 -10.15190
 Alpha  occ. eigenvalues --  -10.13559 -10.12998  -1.18755  -1.15798  -1.15394
 Alpha  occ. eigenvalues --   -1.15314  -1.12666  -1.11830  -1.08309  -1.07555
 Alpha  occ. eigenvalues --   -1.07373  -1.06614  -1.06171  -1.04808  -1.04104
 Alpha  occ. eigenvalues --   -1.04028  -1.03762  -0.99616  -0.96709  -0.96612
 Alpha  occ. eigenvalues --   -0.96174  -0.95780  -0.95196  -0.93120  -0.92877
 Alpha  occ. eigenvalues --   -0.89929  -0.87121  -0.85025  -0.84444  -0.83871
 Alpha  occ. eigenvalues --   -0.83815  -0.83271  -0.83086  -0.81948  -0.79597
 Alpha  occ. eigenvalues --   -0.79069  -0.78270  -0.77002  -0.76041  -0.75980
 Alpha  occ. eigenvalues --   -0.74940  -0.74893  -0.74506  -0.73032  -0.71868
 Alpha  occ. eigenvalues --   -0.71188  -0.71128  -0.70594  -0.70506  -0.70260
 Alpha  occ. eigenvalues --   -0.69019  -0.68713  -0.68283  -0.67989  -0.67513
 Alpha  occ. eigenvalues --   -0.66871  -0.65008  -0.64566  -0.64036  -0.63718
 Alpha  occ. eigenvalues --   -0.63291  -0.63199  -0.63002  -0.62430  -0.61142
 Alpha  occ. eigenvalues --   -0.60859  -0.60791  -0.60252  -0.60119  -0.60041
 Alpha  occ. eigenvalues --   -0.58535  -0.58234  -0.57819  -0.57173  -0.56947
 Alpha  occ. eigenvalues --   -0.56860  -0.56028  -0.55872  -0.55590  -0.55273
 Alpha  occ. eigenvalues --   -0.54857  -0.54568  -0.53903  -0.53649  -0.53213
 Alpha  occ. eigenvalues --   -0.52883  -0.52800  -0.52064  -0.51936  -0.51442
 Alpha  occ. eigenvalues --   -0.51292  -0.51169  -0.50858  -0.50578  -0.50292
 Alpha  occ. eigenvalues --   -0.50215  -0.50079  -0.49709  -0.48991  -0.48805
 Alpha  occ. eigenvalues --   -0.48566  -0.48405  -0.48008  -0.47775  -0.47193
 Alpha  occ. eigenvalues --   -0.46740  -0.46737  -0.46422  -0.46116  -0.45845
 Alpha  occ. eigenvalues --   -0.45674  -0.45533  -0.45039  -0.44823  -0.44590
 Alpha  occ. eigenvalues --   -0.44486  -0.44212  -0.44066  -0.44047  -0.43672
 Alpha  occ. eigenvalues --   -0.43571  -0.43493  -0.43322  -0.42999  -0.42621
 Alpha  occ. eigenvalues --   -0.42495  -0.42305  -0.41952  -0.41836  -0.41593
 Alpha  occ. eigenvalues --   -0.41304  -0.41203  -0.40964  -0.40646  -0.39998
 Alpha  occ. eigenvalues --   -0.39946  -0.39418  -0.39177  -0.38974  -0.38713
 Alpha  occ. eigenvalues --   -0.38422  -0.38301  -0.37862  -0.37227  -0.36779
 Alpha  occ. eigenvalues --   -0.36767  -0.35624  -0.35310  -0.35053  -0.34924
 Alpha  occ. eigenvalues --   -0.34425  -0.34338  -0.33866  -0.33601  -0.33533
 Alpha  occ. eigenvalues --   -0.32852  -0.32536  -0.31756  -0.31314  -0.30945
 Alpha  occ. eigenvalues --   -0.30247  -0.29758  -0.29532  -0.29252  -0.29130
 Alpha  occ. eigenvalues --   -0.28912  -0.27409  -0.26895  -0.26477  -0.22150
 Alpha  occ. eigenvalues --   -0.16392  -0.13344
 Alpha virt. eigenvalues --   -0.12476  -0.12366  -0.10606  -0.10391  -0.09619
 Alpha virt. eigenvalues --   -0.07445  -0.06339  -0.05602  -0.04767  -0.04393
 Alpha virt. eigenvalues --   -0.03540  -0.02559  -0.02507  -0.02172  -0.01938

 Mulliken charges:
               1
     1  N   -0.716260
     2  H    0.431060
     3  H    0.419782
     4  H    0.425748
     5  C   -0.146832
     6  H    0.217090
     7  C    0.636602
     8  C   -0.372679
     9  H    0.188766
    10  H    0.174484
    11  O   -0.530036
    12  C    0.151977
    13  C   -0.181831
    14  H    0.145506
    15  C   -0.193830
    16  H    0.127045
    17  C   -0.123987
    18  H    0.158977
    19  C   -0.116071
    20  H    0.160359
    21  C   -0.106654
    22  H    0.160405
    23  N   -0.588069
    24  H    0.367583
    25  C   -0.054145
    26  H    0.178994
    27  C    0.621276
    28  C   -0.449303
    29  H    0.198524
    30  H    0.178805
    31  H    0.167896
    32  O   -0.526649
    33  N   -0.582781
    34  H    0.340180
    35  C   -0.086076
    36  H    0.181378
    37  C    0.636692
    38  C   -0.455747
    39  H    0.173871
    40  H    0.165869
    41  H    0.155477
    42  O   -0.546076
    43  N   -0.615934
    44  H    0.342717
    45  C   -0.035099
    46  H    0.186177
    47  C    0.617578
    48  C   -0.377179
    49  H    0.155697
    50  H    0.165447
    51  O   -0.588729
    52  C    0.063995
    53  C   -0.213260
    54  H    0.087080
    55  C   -0.196670
    56  H    0.097026
    57  C   -0.222119
    58  H    0.111319
    59  C   -0.220830
    60  H    0.095453
    61  O   -0.626333
    62  C    0.403784
    63  N   -0.600524
    64  H    0.393238
    65  C   -0.071690
    66  H    0.165367
    67  C    0.648030
    68  C   -0.281766
    69  H    0.138323
    70  H    0.206227
    71  O   -0.550352
    72  C   -0.078693
    73  H    0.123039
    74  C   -0.445858
    75  H    0.145177
    76  H    0.126125
    77  H    0.139806
    78  C   -0.444771
    79  H    0.145487
    80  H    0.171056
    81  H    0.115745
    82  N   -0.625310
    83  H    0.376938
    84  C   -0.079301
    85  H    0.214360
    86  C    0.646598
    87  C   -0.324280
    88  H    0.175114
    89  H    0.165401
    90  O   -0.539524
    91  C   -0.328315
    92  H    0.192807
    93  H    0.160975
    94  C    0.563993
    95  O   -0.444795
    96  O   -0.568928
    97  N   -0.627248
    98  H    0.381519
    99  C   -0.010585
   100  H    0.185263
   101  C    0.587034
   102  C   -0.312963
   103  H    0.179340
   104  H    0.169345
   105  O   -0.440278
   106  C   -0.303120
   107  H    0.173036
   108  H    0.166644
   109  C   -0.157669
   110  H    0.189960
   111  H    0.176700
   112  N   -0.593996
   113  H    0.361510
   114  N   -0.736196
   115  H    0.371847
   116  H    0.388415
   117  N   -0.738156
   118  H    0.367159
   119  H    0.372983
   120  C    0.741258
   121  O   -0.574245
   122  H    0.422070
   123  H    0.413239
 Sum of Mulliken charges =   1.00000

 Dipole moment (field-independent basis, Debye):
    X=              1.9290    Y=             30.6494    Z=              0.4418  Tot=             30.7132
 Quadrupole moment (field-independent basis, Debye-Ang):
   XX=            492.1204   YY=           -182.7563   ZZ=           -341.6672
   XY=           -369.1022   XZ=           -169.9007   YZ=             -4.0917

 Normal termination of Gaussian 16 at Sun Aug  7 18:55:34 2022.
