 Gaussian 16, Revision C.01,
 Gaussian 16:  ES64L-G16RevC.01  3-Jul-2019

 ----------------------------------------------------------------------
 # B3LYP/6-31G* empiricaldispersion=gd3bj guess=read geom=check nosymm
 integral(ultrafinegrid)
 ----------------------------------------------------------------------

 ------------------------------------------------------
 Candidate Structure: Conf:883 Charge calc in gas phase
 ------------------------------------------------------
 Structure from the checkpoint file:  "conf-883.chk"
 Charge =  1 Multiplicity = 1

                          Input orientation:
 ---------------------------------------------------------------------
 Center     Atomic      Atomic             Coordinates (Angstroms)
 Number     Number       Type             X           Y           Z
 ---------------------------------------------------------------------
      1          7           0       -9.039119    0.220936    6.999523
      2          1           0       -9.727940    0.048424    6.256666
      3          1           0       -9.537745    0.542417    7.837637
      4          1           0       -8.578551   -0.674119    7.209602
      5          6           0       -7.985381    1.201774    6.558801
      6          1           0       -8.473591    2.126733    6.240390
      7          6           0       -7.241933    0.542412    5.396909
      8          6           0       -6.998159    1.516945    7.684247
      9          1           0       -6.465895    0.596880    7.938697
     10          1           0       -7.547256    1.843068    8.574016
     11          8           0       -6.650157   -0.530546    5.593885
     12          6           0       -6.053514    2.596153    7.207955
     13          6           0       -4.949360    2.255574    6.422712
     14          1           0       -4.782849    1.212781    6.186079
     15          6           0       -6.293029    3.942987    7.489429
     16          1           0       -7.146098    4.224706    8.099363
     17          6           0       -4.091194    3.237358    5.933810
     18          1           0       -3.234480    2.951038    5.338563
     19          6           0       -5.437876    4.930081    6.998121
     20          1           0       -5.635939    5.972475    7.225771
     21          6           0       -4.335613    4.579826    6.219947
     22          1           0       -3.670559    5.348195    5.838948
     23          7           0       -7.296153    1.181399    4.215725
     24          1           0       -7.695903    2.106369    4.168007
     25          6           0       -6.707146    0.631151    2.995511
     26          1           0       -6.730195   -0.455636    3.113531
     27          6           0       -5.242698    1.096204    2.907322
     28          6           0       -7.509166    1.069781    1.782562
     29          1           0       -7.069249    0.656687    0.872223
     30          1           0       -7.500139    2.158603    1.692141
     31          1           0       -8.541309    0.718854    1.864810
     32          8           0       -4.922262    2.100960    2.273478
     33          7           0       -4.355231    0.329832    3.579674
     34          1           0       -4.711224   -0.414729    4.167006
     35          6           0       -2.932841    0.666128    3.671191
     36          1           0       -2.874642    1.762312    3.695572
     37          6           0       -2.163641    0.202140    2.414619
     38          6           0       -2.315062    0.054695    4.920897
     39          1           0       -1.273538    0.365192    5.008010
     40          1           0       -2.338023   -1.035992    4.860390
     41          1           0       -2.852400    0.364895    5.824925
     42          8           0       -1.186111   -0.534911    2.489274
     43          7           0       -2.653513    0.660182    1.237405
     44          1           0       -3.328625    1.416274    1.273992
     45          6           0       -1.879049    0.498655    0.021282
     46          1           0       -1.686709   -0.567961   -0.123180
     47          6           0       -0.505531    1.176861    0.161228
     48          6           0       -2.666092    1.043117   -1.182802
     49          1           0       -3.583067    0.445768   -1.257557
     50          1           0       -2.954689    2.077838   -0.973311
     51          8           0       -0.328958    2.265113    0.689310
     52          6           0       -1.837515    1.050070   -2.432178
     53          6           0       -1.541585    2.287787   -3.021616
     54          1           0       -1.989292    3.189683   -2.608662
     55          6           0       -1.242964   -0.100044   -2.979827
     56          1           0       -1.468397   -1.072684   -2.542174
     57          6           0       -0.700012    2.390234   -4.103610
     58          1           0       -0.497680    3.347725   -4.561101
     59          6           0       -0.336984   -0.022246   -4.023282
     60          1           0        0.156188   -0.907879   -4.408426
     61          8           0        0.880858    1.374174   -5.525947
     62          6           0        0.011531    1.250660   -4.627964
     63          7           0        0.492396    0.394917   -0.331593
     64          1           0        0.233606   -0.392113   -0.907942
     65          6           0        1.893810    0.750943   -0.324571
     66          1           0        1.969384    1.697514    0.213241
     67          6           0        2.367058    0.916063   -1.771260
     68          6           0        2.722359   -0.319403    0.383947
     69          1           0        2.725084   -1.221556   -0.234823
     70          1           0        3.762550    0.030241    0.436407
     71          8           0        2.676834   -0.086325   -2.430316
     72          6           0        2.228871   -0.664858    1.795874
     73          1           0        1.210753   -1.057018    1.710036
     74          6           0        3.118594   -1.756958    2.393695
     75          1           0        4.152642   -1.405294    2.488637
     76          1           0        2.770627   -2.047225    3.390000
     77          1           0        3.121941   -2.654220    1.764831
     78          6           0        2.176985    0.556738    2.716460
     79          1           0        3.184388    0.957138    2.886458
     80          1           0        1.553445    1.355476    2.308659
     81          1           0        1.758937    0.276374    3.689045
     82          7           0        2.407285    2.163670   -2.271858
     83          1           0        2.077215    2.925694   -1.700623
     84          6           0        2.741310    2.458242   -3.677869
     85          1           0        2.201022    1.734063   -4.300792
     86          6           0        4.256700    2.282203   -3.882663
     87          6           0        2.303183    3.874062   -4.023003
     88          1           0        1.259897    3.982136   -3.713707
     89          1           0        2.891393    4.598521   -3.454842
     90          8           0        5.063776    3.204085   -3.911802
     91          6           0        2.431262    4.132320   -5.527245
     92          1           0        1.878444    3.374776   -6.090692
     93          1           0        3.482982    4.068035   -5.824691
     94          6           0        1.909641    5.485833   -5.926614
     95          8           0        1.073795    5.704553   -6.772325
     96          8           0        2.501038    6.486679   -5.223539
     97          7           0        4.634219    0.986928   -4.015953
     98          1           0        3.939373    0.282538   -3.783901
     99          6           0        6.030944    0.630400   -4.025855
    100          1           0        6.551169    1.131982   -3.199033
    101          6           0        6.763337    1.095634   -5.278868
    102          6           0        6.162782   -0.887647   -3.865767
    103          1           0        7.205458   -1.167467   -4.037873
    104          1           0        5.565008   -1.376286   -4.641031
    105          8           0        7.943147    1.361940   -5.290555
    106          6           0        5.708890   -1.345807   -2.479183
    107          1           0        4.665061   -1.064712   -2.305488
    108          1           0        6.300127   -0.830703   -1.711037
    109          6           0        5.831880   -2.846801   -2.285234
    110          1           0        5.287136   -3.360989   -3.082380
    111          1           0        5.398338   -3.150088   -1.324663
    112          7           0        7.253808   -3.251835   -2.352412
    113          1           0        7.895078   -2.591984   -1.929323
    114          7           0        6.779419   -5.527036   -2.507555
    115          1           0        7.051774   -6.461634   -2.238030
    116          1           0        5.796888   -5.320799   -2.395121
    117          7           0        8.969287   -4.807619   -2.138572
    118          1           0        9.285692   -5.715037   -2.455603
    119          1           0        9.626069   -4.065228   -2.348029
    120          6           0        7.656437   -4.523676   -2.322213
    121          8           0        5.983902    1.117245   -6.375281
    122          1           0        2.110372    7.310484   -5.558199
    123          1           0        6.550536    1.411585   -7.106979
 ---------------------------------------------------------------------

 SCF Done:  E(RB3LYP) =  -2974.17337712     A.U. after    3 cycles

 Alpha  occ. eigenvalues --  -19.25039 -19.22703 -19.19972 -19.18990 -19.16971
 Alpha  occ. eigenvalues --  -19.16084 -19.15190 -19.13862 -19.13139 -19.13069
 Alpha  occ. eigenvalues --  -19.05097 -14.62630 -14.53157 -14.52805 -14.52595
 Alpha  occ. eigenvalues --  -14.49530 -14.44345 -14.39239 -14.39080 -14.38126
 Alpha  occ. eigenvalues --  -14.37246 -10.49042 -10.42300 -10.40590 -10.37085
 Alpha  occ. eigenvalues --  -10.35168 -10.35007 -10.33641 -10.33058 -10.32897
 Alpha  occ. eigenvalues --  -10.31734 -10.31114 -10.30792 -10.29897 -10.29894
 Alpha  occ. eigenvalues --  -10.29644 -10.28531 -10.28021 -10.27902 -10.27844
 Alpha  occ. eigenvalues --  -10.27668 -10.27662 -10.27589 -10.27227 -10.26468
 Alpha  occ. eigenvalues --  -10.25930 -10.25547 -10.24629 -10.22617 -10.21729
 Alpha  occ. eigenvalues --  -10.21513 -10.21283 -10.20830 -10.20159 -10.19713
 Alpha  occ. eigenvalues --  -10.19007 -10.18119 -10.17486 -10.16845 -10.16745
 Alpha  occ. eigenvalues --  -10.15322 -10.14523  -1.18347  -1.17786  -1.15570
 Alpha  occ. eigenvalues --   -1.13864  -1.12035  -1.09907  -1.08038  -1.07109
 Alpha  occ. eigenvalues --   -1.06842  -1.06216  -1.05682  -1.05649  -1.05093
 Alpha  occ. eigenvalues --   -1.04739  -1.00692  -1.00590  -0.96462  -0.96036
 Alpha  occ. eigenvalues --   -0.95641  -0.95490  -0.95260  -0.94805  -0.92784
 Alpha  occ. eigenvalues --   -0.89832  -0.88180  -0.84851  -0.84574  -0.83859
 Alpha  occ. eigenvalues --   -0.83609  -0.83373  -0.83060  -0.80809  -0.79489
 Alpha  occ. eigenvalues --   -0.79424  -0.79346  -0.77384  -0.76494  -0.76017
 Alpha  occ. eigenvalues --   -0.75205  -0.74522  -0.74475  -0.73163  -0.72770
 Alpha  occ. eigenvalues --   -0.72302  -0.72007  -0.71474  -0.71402  -0.70189
 Alpha  occ. eigenvalues --   -0.69876  -0.68498  -0.68223  -0.67825  -0.67518
 Alpha  occ. eigenvalues --   -0.66119  -0.65870  -0.65390  -0.65022  -0.64890
 Alpha  occ. eigenvalues --   -0.63307  -0.63302  -0.62810  -0.61862  -0.61330
 Alpha  occ. eigenvalues --   -0.61013  -0.60588  -0.60440  -0.60062  -0.59609
 Alpha  occ. eigenvalues --   -0.59350  -0.59210  -0.58900  -0.58447  -0.57492
 Alpha  occ. eigenvalues --   -0.56647  -0.56162  -0.55768  -0.55661  -0.55168
 Alpha  occ. eigenvalues --   -0.54713  -0.54518  -0.54383  -0.53310  -0.53190
 Alpha  occ. eigenvalues --   -0.52785  -0.51938  -0.51638  -0.51386  -0.50953
 Alpha  occ. eigenvalues --   -0.50890  -0.50753  -0.50690  -0.50342  -0.50056
 Alpha  occ. eigenvalues --   -0.49811  -0.49669  -0.49106  -0.48852  -0.48408
 Alpha  occ. eigenvalues --   -0.47764  -0.47621  -0.47276  -0.47084  -0.46945
 Alpha  occ. eigenvalues --   -0.46783  -0.46481  -0.46393  -0.46073  -0.45670
 Alpha  occ. eigenvalues --   -0.45296  -0.45148  -0.44804  -0.44788  -0.44745
 Alpha  occ. eigenvalues --   -0.44633  -0.44442  -0.43965  -0.43830  -0.43623
 Alpha  occ. eigenvalues --   -0.43498  -0.43393  -0.43030  -0.42946  -0.42627
 Alpha  occ. eigenvalues --   -0.42533  -0.42313  -0.42222  -0.41914  -0.41657
 Alpha  occ. eigenvalues --   -0.41037  -0.40685  -0.40354  -0.39941  -0.39785
 Alpha  occ. eigenvalues --   -0.39634  -0.39380  -0.39311  -0.39108  -0.38927
 Alpha  occ. eigenvalues --   -0.38312  -0.37603  -0.37171  -0.36965  -0.36296
 Alpha  occ. eigenvalues --   -0.35640  -0.35513  -0.35209  -0.34779  -0.34742
 Alpha  occ. eigenvalues --   -0.34553  -0.34292  -0.34143  -0.34023  -0.33412
 Alpha  occ. eigenvalues --   -0.32660  -0.32054  -0.31390  -0.31186  -0.30613
 Alpha  occ. eigenvalues --   -0.30505  -0.30170  -0.29156  -0.28264  -0.27541
 Alpha  occ. eigenvalues --   -0.27151  -0.26825  -0.26320  -0.25272  -0.23070
 Alpha  occ. eigenvalues --   -0.18996  -0.15244
 Alpha virt. eigenvalues --   -0.14388  -0.14215  -0.11351  -0.10201  -0.09034
 Alpha virt. eigenvalues --   -0.08958  -0.07342  -0.06455  -0.06168  -0.04879
 Alpha virt. eigenvalues --   -0.03818  -0.03580  -0.03248  -0.02778  -0.02438

 Mulliken charges:
               1
     1  N   -0.699169
     2  H    0.400821
     3  H    0.395750
     4  H    0.421050
     5  C   -0.127097
     6  H    0.201888
     7  C    0.620044
     8  C   -0.368675
     9  H    0.198957
    10  H    0.166037
    11  O   -0.547206
    12  C    0.141185
    13  C   -0.187899
    14  H    0.151724
    15  C   -0.190264
    16  H    0.130515
    17  C   -0.127781
    18  H    0.163140
    19  C   -0.125960
    20  H    0.157739
    21  C   -0.123144
    22  H    0.165872
    23  N   -0.572329
    24  H    0.352364
    25  C   -0.079194
    26  H    0.188421
    27  C    0.643964
    28  C   -0.463821
    29  H    0.199098
    30  H    0.184456
    31  H    0.151182
    32  O   -0.529566
    33  N   -0.602099
    34  H    0.353302
    35  C   -0.083256
    36  H    0.193960
    37  C    0.645102
    38  C   -0.480387
    39  H    0.193256
    40  H    0.170910
    41  H    0.143281
    42  O   -0.525545
    43  N   -0.629531
    44  H    0.375203
    45  C   -0.032574
    46  H    0.149756
    47  C    0.651935
    48  C   -0.376731
    49  H    0.132925
    50  H    0.150424
    51  O   -0.556455
    52  C    0.145955
    53  C   -0.186347
    54  H    0.097809
    55  C   -0.220821
    56  H    0.078465
    57  C   -0.221208
    58  H    0.116491
    59  C   -0.194174
    60  H    0.087176
    61  O   -0.643189
    62  C    0.421097
    63  N   -0.578942
    64  H    0.340299
    65  C   -0.066886
    66  H    0.175307
    67  C    0.666232
    68  C   -0.261426
    69  H    0.130595
    70  H    0.116027
    71  O   -0.579915
    72  C   -0.076058
    73  H    0.171409
    74  C   -0.439636
    75  H    0.123698
    76  H    0.144405
    77  H    0.115061
    78  C   -0.461704
    79  H    0.121554
    80  H    0.180274
    81  H    0.135803
    82  N   -0.616024
    83  H    0.347075
    84  C   -0.084333
    85  H    0.261707
    86  C    0.625459
    87  C   -0.307979
    88  H    0.150219
    89  H    0.162271
    90  O   -0.535497
    91  C   -0.364455
    92  H    0.227248
    93  H    0.176689
    94  C    0.551998
    95  O   -0.465455
    96  O   -0.563053
    97  N   -0.621075
    98  H    0.378315
    99  C    0.009914
   100  H    0.171428
   101  C    0.593182
   102  C   -0.314719
   103  H    0.146526
   104  H    0.173204
   105  O   -0.478101
   106  C   -0.343951
   107  H    0.242751
   108  H    0.150835
   109  C   -0.180178
   110  H    0.192721
   111  H    0.192019
   112  N   -0.570908
   113  H    0.371450
   114  N   -0.731063
   115  H    0.384012
   116  H    0.395976
   117  N   -0.733666
   118  H    0.379682
   119  H    0.384710
   120  C    0.770151
   121  O   -0.545896
   122  H    0.398645
   123  H    0.415238
 Sum of Mulliken charges =   1.00000

 Dipole moment (field-independent basis, Debye):
    X=            -10.7647    Y=            -20.9554    Z=             32.1815  Tot=             39.8831
 Quadrupole moment (field-independent basis, Debye-Ang):
   XX=            175.9286   YY=           -263.1836   ZZ=           -238.8356
   XY=           -191.1225   XZ=           -297.1379   YZ=            107.8870

 Normal termination of Gaussian 16 at Sun Aug  7 19:02:35 2022.
