 Gaussian 16, Revision C.01,
 Gaussian 16:  ES64L-G16RevC.01  3-Jul-2019

 ----------------------------------------------------------------------
 # B3LYP/6-31G* empiricaldispersion=gd3bj guess=read geom=check nosymm
 integral(ultrafinegrid)
 ----------------------------------------------------------------------

 ------------------------------------------------------
 Candidate Structure: Conf:669 Charge calc in gas phase
 ------------------------------------------------------
 Structure from the checkpoint file:  "conf-669.chk"
 Charge =  1 Multiplicity = 1

                          Input orientation:
 ---------------------------------------------------------------------
 Center     Atomic      Atomic             Coordinates (Angstroms)
 Number     Number       Type             X           Y           Z
 ---------------------------------------------------------------------
      1          7           0       -3.703232   -4.772254    8.869662
      2          1           0       -3.999441   -5.746448    8.945457
      3          1           0       -3.605682   -4.351779    9.794400
      4          1           0       -2.808035   -4.754195    8.367716
      5          6           0       -4.631437   -3.986008    8.039514
      6          1           0       -5.654998   -4.338167    8.192144
      7          6           0       -4.213657   -4.168093    6.585643
      8          6           0       -4.565024   -2.500175    8.410244
      9          1           0       -5.198904   -1.940151    7.720672
     10          1           0       -3.539911   -2.150787    8.262071
     11          8           0       -3.065421   -4.463490    6.297092
     12          6           0       -4.991590   -2.258940    9.834039
     13          6           0       -6.322540   -2.433417   10.210122
     14          1           0       -7.045873   -2.718800    9.454431
     15          6           0       -4.061546   -1.920834   10.812047
     16          1           0       -3.017847   -1.801561   10.537646
     17          6           0       -6.722097   -2.242924   11.529114
     18          1           0       -7.764940   -2.373588   11.795245
     19          6           0       -4.449915   -1.744314   12.137283
     20          1           0       -3.707587   -1.484883   12.882968
     21          6           0       -5.784432   -1.900975   12.499025
     22          1           0       -6.090930   -1.758777   13.529041
     23          7           0       -5.188223   -3.958125    5.650862
     24          1           0       -5.997454   -3.445578    5.963529
     25          6           0       -4.799801   -3.631375    4.289043
     26          1           0       -3.819450   -4.079346    4.131363
     27          6           0       -4.685647   -2.103121    4.172920
     28          6           0       -5.804477   -4.173239    3.282406
     29          1           0       -5.485667   -3.948855    2.261415
     30          1           0       -6.787967   -3.721967    3.441034
     31          1           0       -5.896488   -5.254615    3.389637
     32          8           0       -5.316325   -1.344267    4.892016
     33          7           0       -3.877252   -1.661897    3.184583
     34          1           0       -3.385655   -2.286998    2.565645
     35          6           0       -3.727519   -0.251679    2.915669
     36          1           0       -4.717216    0.212162    2.932666
     37          6           0       -3.122179   -0.151017    1.514457
     38          6           0       -2.852526    0.439374    3.960943
     39          1           0       -2.764485    1.507358    3.743748
     40          1           0       -1.847709    0.006745    3.979870
     41          1           0       -3.300090    0.309417    4.943577
     42          8           0       -2.587543   -1.120475    0.982601
     43          7           0       -3.167316    1.070621    0.942499
     44          1           0       -3.715536    1.794065    1.370772
     45          6           0       -2.656504    1.318315   -0.402846
     46          1           0       -2.924684    0.454300   -1.010067
     47          6           0       -1.131687    1.453438   -0.320256
     48          6           0       -3.291065    2.585923   -0.985320
     49          1           0       -2.994182    3.441565   -0.382583
     50          1           0       -2.875368    2.736121   -1.982423
     51          8           0       -0.569463    2.544639   -0.247595
     52          6           0       -4.766225    2.489298   -1.043563
     53          6           0       -5.385280    1.630103   -1.971080
     54          1           0       -4.753479    1.067596   -2.653052
     55          6           0       -5.567940    3.211047   -0.140948
     56          1           0       -5.085970    3.867135    0.578744
     57          6           0       -6.743276    1.492399   -2.031940
     58          1           0       -7.226866    0.837519   -2.744962
     59          6           0       -6.929505    3.105839   -0.143432
     60          1           0       -7.555778    3.653638    0.548297
     61          8           0       -8.819953    2.116654   -1.125952
     62          6           0       -7.595953    2.229021   -1.102009
     63          7           0       -0.459561    0.279534   -0.285153
     64          1           0       -0.968145   -0.594141   -0.257454
     65          6           0        0.966291    0.221519   -0.054620
     66          1           0        1.307032    1.251758    0.044639
     67          6           0        1.618258   -0.411722   -1.280108
     68          6           0        1.312052   -0.591237    1.190038
     69          1           0        1.131397   -1.646856    0.976149
     70          1           0        2.384430   -0.487979    1.383450
     71          8           0        1.245314   -1.501281   -1.704977
     72          6           0        0.539987   -0.198272    2.450900
     73          1           0       -0.518660   -0.388235    2.254594
     74          6           0        0.966201   -1.074790    3.620667
     75          1           0        2.029319   -0.939193    3.830056
     76          1           0        0.409494   -0.819330    4.526596
     77          1           0        0.791889   -2.131317    3.407888
     78          6           0        0.718959    1.275516    2.790591
     79          1           0        1.755371    1.466387    3.083271
     80          1           0        0.483135    1.928680    1.951335
     81          1           0        0.072134    1.555144    3.628610
     82          7           0        2.591342    0.320363   -1.879815
     83          1           0        3.068087    1.019243   -1.336618
     84          6           0        3.323674   -0.243439   -2.999682
     85          1           0        2.584992   -0.735376   -3.631755
     86          6           0        4.329539   -1.262590   -2.470844
     87          6           0        4.064948    0.846789   -3.766748
     88          1           0        4.825490    1.270251   -3.109822
     89          1           0        4.587171    0.387337   -4.608208
     90          8           0        5.129567   -0.969923   -1.587187
     91          6           0        3.146755    1.956351   -4.284827
     92          1           0        3.733824    2.681773   -4.854191
     93          1           0        2.663242    2.479861   -3.456857
     94          6           0        2.071156    1.404336   -5.173776
     95          8           0        0.886357    1.421773   -4.946891
     96          8           0        2.585295    0.839113   -6.292698
     97          7           0        4.272805   -2.484335   -3.049156
     98          1           0        3.582689   -2.671421   -3.757039
     99          6           0        5.150407   -3.552438   -2.624508
    100          1           0        5.973393   -3.087552   -2.079394
    101          6           0        5.746755   -4.286769   -3.807501
    102          6           0        4.459982   -4.562660   -1.696285
    103          1           0        5.204992   -5.320557   -1.442688
    104          1           0        3.653410   -5.060722   -2.238541
    105          8           0        6.830198   -4.808244   -3.813805
    106          6           0        3.936621   -3.902097   -0.428204
    107          1           0        3.069906   -3.283370   -0.656637
    108          1           0        4.702632   -3.230555   -0.037567
    109          6           0        3.560444   -4.892551    0.658558
    110          1           0        3.283616   -4.344981    1.563284
    111          1           0        4.419230   -5.525230    0.910308
    112          7           0        2.413811   -5.714071    0.223668
    113          1           0        2.378527   -5.885773   -0.771248
    114          7           0        2.339095   -6.880915    2.248852
    115          1           0        1.773313   -7.426054    2.879129
    116          1           0        2.881148   -6.145821    2.671225
    117          7           0        1.028651   -7.564481    0.425767
    118          1           0        0.503042   -8.149264    1.057074
    119          1           0        0.500553   -7.231563   -0.369990
    120          6           0        1.920246   -6.705692    0.979596
    121          8           0        4.892954   -4.346515   -4.857302
    122          1           0        1.832583    0.516817   -6.803418
    123          1           0        5.340281   -4.848114   -5.550723
 ---------------------------------------------------------------------

 SCF Done:  E(RB3LYP) =  -2974.14641629     A.U. after    4 cycles

 Alpha  occ. eigenvalues --  -19.28146 -19.25847 -19.24556 -19.22230 -19.20224
 Alpha  occ. eigenvalues --  -19.19022 -19.18923 -19.18678 -19.18222 -19.15243
 Alpha  occ. eigenvalues --  -19.04756 -14.61469 -14.51928 -14.51335 -14.51083
 Alpha  occ. eigenvalues --  -14.47930 -14.44344 -14.43654 -14.42884 -14.41969
 Alpha  occ. eigenvalues --  -14.40034 -10.46057 -10.42224 -10.40346 -10.40187
 Alpha  occ. eigenvalues --  -10.37071 -10.36831 -10.36034 -10.35458 -10.35356
 Alpha  occ. eigenvalues --  -10.34888 -10.33144 -10.33040 -10.32480 -10.32371
 Alpha  occ. eigenvalues --  -10.30966 -10.30334 -10.30177 -10.29934 -10.29565
 Alpha  occ. eigenvalues --  -10.29500 -10.29241 -10.29186 -10.29102 -10.28910
 Alpha  occ. eigenvalues --  -10.28319 -10.27511 -10.26760 -10.26253 -10.25523
 Alpha  occ. eigenvalues --  -10.24954 -10.24779 -10.24651 -10.24306 -10.22192
 Alpha  occ. eigenvalues --  -10.20111 -10.19914 -10.17044 -10.16856 -10.16782
 Alpha  occ. eigenvalues --  -10.14952 -10.14796  -1.19311  -1.19304  -1.16091
 Alpha  occ. eigenvalues --   -1.15966  -1.15747  -1.12782  -1.11488  -1.11156
 Alpha  occ. eigenvalues --   -1.10234  -1.10151  -1.07291  -1.06476  -1.05633
 Alpha  occ. eigenvalues --   -1.04943  -1.04866  -1.01350  -1.00605  -0.99750
 Alpha  occ. eigenvalues --   -0.98667  -0.97397  -0.97182  -0.95600  -0.93443
 Alpha  occ. eigenvalues --   -0.91418  -0.88352  -0.87874  -0.87355  -0.86042
 Alpha  occ. eigenvalues --   -0.86028  -0.85135  -0.84530  -0.82917  -0.81988
 Alpha  occ. eigenvalues --   -0.80394  -0.79640  -0.79172  -0.78511  -0.77908
 Alpha  occ. eigenvalues --   -0.75754  -0.75278  -0.74833  -0.74499  -0.73684
 Alpha  occ. eigenvalues --   -0.73349  -0.72733  -0.72491  -0.72194  -0.71625
 Alpha  occ. eigenvalues --   -0.71449  -0.71045  -0.70222  -0.69563  -0.69489
 Alpha  occ. eigenvalues --   -0.68665  -0.67685  -0.66893  -0.66118  -0.65823
 Alpha  occ. eigenvalues --   -0.65153  -0.64880  -0.64791  -0.64151  -0.64133
 Alpha  occ. eigenvalues --   -0.63402  -0.62997  -0.62289  -0.61985  -0.61833
 Alpha  occ. eigenvalues --   -0.61281  -0.60581  -0.58779  -0.58315  -0.58015
 Alpha  occ. eigenvalues --   -0.57969  -0.57900  -0.57193  -0.56606  -0.56575
 Alpha  occ. eigenvalues --   -0.56385  -0.56137  -0.55904  -0.55832  -0.55727
 Alpha  occ. eigenvalues --   -0.54865  -0.54585  -0.54453  -0.53863  -0.53732
 Alpha  occ. eigenvalues --   -0.53462  -0.53393  -0.53239  -0.52784  -0.52541
 Alpha  occ. eigenvalues --   -0.52387  -0.52016  -0.51779  -0.51540  -0.51157
 Alpha  occ. eigenvalues --   -0.50692  -0.50631  -0.50540  -0.50331  -0.49726
 Alpha  occ. eigenvalues --   -0.49610  -0.49371  -0.48833  -0.48417  -0.48387
 Alpha  occ. eigenvalues --   -0.48001  -0.47498  -0.47372  -0.46846  -0.46766
 Alpha  occ. eigenvalues --   -0.46458  -0.46374  -0.46311  -0.45669  -0.45452
 Alpha  occ. eigenvalues --   -0.45322  -0.45252  -0.45029  -0.44982  -0.44805
 Alpha  occ. eigenvalues --   -0.44751  -0.44631  -0.44624  -0.44383  -0.43886
 Alpha  occ. eigenvalues --   -0.43372  -0.43170  -0.42902  -0.42698  -0.42463
 Alpha  occ. eigenvalues --   -0.42348  -0.42271  -0.41946  -0.41616  -0.41535
 Alpha  occ. eigenvalues --   -0.40730  -0.40405  -0.40249  -0.40165  -0.38641
 Alpha  occ. eigenvalues --   -0.38579  -0.38402  -0.38349  -0.38180  -0.36827
 Alpha  occ. eigenvalues --   -0.36736  -0.36134  -0.35906  -0.35451  -0.35212
 Alpha  occ. eigenvalues --   -0.34339  -0.34279  -0.33843  -0.33270  -0.33120
 Alpha  occ. eigenvalues --   -0.32905  -0.32753  -0.32619  -0.32218  -0.32102
 Alpha  occ. eigenvalues --   -0.31254  -0.29211  -0.28637  -0.28096  -0.23449
 Alpha  occ. eigenvalues --   -0.18073  -0.14161
 Alpha virt. eigenvalues --   -0.13309  -0.13214  -0.11434  -0.10450  -0.10388
 Alpha virt. eigenvalues --   -0.08773  -0.07525  -0.06245  -0.05630  -0.05531
 Alpha virt. eigenvalues --   -0.04962  -0.04512  -0.04295  -0.03977  -0.03687

 Mulliken charges:
               1
     1  N   -0.709337
     2  H    0.413089
     3  H    0.402182
     4  H    0.411892
     5  C   -0.144057
     6  H    0.212641
     7  C    0.618100
     8  C   -0.395584
     9  H    0.233592
    10  H    0.182299
    11  O   -0.526467
    12  C    0.148573
    13  C   -0.187725
    14  H    0.136156
    15  C   -0.215001
    16  H    0.134048
    17  C   -0.122952
    18  H    0.163658
    19  C   -0.124512
    20  H    0.159438
    21  C   -0.125828
    22  H    0.164704
    23  N   -0.569427
    24  H    0.346686
    25  C   -0.097400
    26  H    0.182052
    27  C    0.629771
    28  C   -0.449598
    29  H    0.181125
    30  H    0.179932
    31  H    0.166252
    32  O   -0.537282
    33  N   -0.609815
    34  H    0.347044
    35  C   -0.041464
    36  H    0.202250
    37  C    0.644428
    38  C   -0.462823
    39  H    0.169492
    40  H    0.163973
    41  H    0.175540
    42  O   -0.573846
    43  N   -0.594023
    44  H    0.347907
    45  C   -0.046476
    46  H    0.176398
    47  C    0.636017
    48  C   -0.398907
    49  H    0.162213
    50  H    0.165108
    51  O   -0.535157
    52  C    0.146124
    53  C   -0.176894
    54  H    0.086241
    55  C   -0.204127
    56  H    0.080731
    57  C   -0.210653
    58  H    0.100773
    59  C   -0.213545
    60  H    0.100083
    61  O   -0.589459
    62  C    0.411524
    63  N   -0.594807
    64  H    0.361589
    65  C   -0.076689
    66  H    0.181872
    67  C    0.651665
    68  C   -0.273419
    69  H    0.129435
    70  H    0.132398
    71  O   -0.559798
    72  C   -0.082206
    73  H    0.147606
    74  C   -0.444683
    75  H    0.139781
    76  H    0.142355
    77  H    0.113044
    78  C   -0.475013
    79  H    0.133835
    80  H    0.196487
    81  H    0.138200
    82  N   -0.581087
    83  H    0.344590
    84  C   -0.066984
    85  H    0.177861
    86  C    0.641938
    87  C   -0.311414
    88  H    0.174177
    89  H    0.176905
    90  O   -0.543134
    91  C   -0.332212
    92  H    0.185651
    93  H    0.188085
    94  C    0.560467
    95  O   -0.445139
    96  O   -0.564980
    97  N   -0.601139
    98  H    0.354383
    99  C   -0.054858
   100  H    0.220927
   101  C    0.584826
   102  C   -0.289752
   103  H    0.171476
   104  H    0.137823
   105  O   -0.440697
   106  C   -0.324809
   107  H    0.206747
   108  H    0.196601
   109  C   -0.164733
   110  H    0.176423
   111  H    0.178694
   112  N   -0.586715
   113  H    0.362769
   114  N   -0.736638
   115  H    0.361582
   116  H    0.380201
   117  N   -0.738502
   118  H    0.358820
   119  H    0.372393
   120  C    0.724617
   121  O   -0.576316
   122  H    0.413541
   123  H    0.426279
 Sum of Mulliken charges =   1.00000

 Dipole moment (field-independent basis, Debye):
    X=              8.8449    Y=            -42.7416    Z=             35.7772  Tot=             56.4366
 Quadrupole moment (field-independent basis, Debye-Ang):
   XX=           -429.9393   YY=           -154.7435   ZZ=              1.7533
   XY=             87.3285   XZ=           -180.6032   YZ=           -146.6100

 Normal termination of Gaussian 16 at Sun Aug  7 18:56:41 2022.
