 Gaussian 16, Revision C.01,
 Gaussian 16:  ES64L-G16RevC.01  3-Jul-2019

 ----------------------------------------------------------------------
 # B3LYP/6-31G* empiricaldispersion=gd3bj guess=read geom=check nosymm
 integral(ultrafinegrid)
 ----------------------------------------------------------------------

 ------------------------------------------------------
 Candidate Structure: Conf:879 Charge calc in gas phase
 ------------------------------------------------------
 Structure from the checkpoint file:  "conf-879.chk"
 Charge =  1 Multiplicity = 1

                          Input orientation:
 ---------------------------------------------------------------------
 Center     Atomic      Atomic             Coordinates (Angstroms)
 Number     Number       Type             X           Y           Z
 ---------------------------------------------------------------------
      1          7           0       -7.729778    0.690218    8.605552
      2          1           0       -8.577534    0.120669    8.682961
      3          1           0       -7.448712    1.001125    9.539896
      4          1           0       -6.995494    0.086997    8.163935
      5          6           0       -7.893131    1.821989    7.631617
      6          1           0       -8.915201    2.199806    7.673161
      7          6           0       -7.585923    1.176933    6.272663
      8          6           0       -6.917282    2.983790    7.930831
      9          1           0       -5.889475    2.625665    7.811378
     10          1           0       -7.043059    3.282998    8.980656
     11          8           0       -6.916840    0.129736    6.297523
     12          6           0       -7.187807    4.144261    7.002457
     13          6           0       -6.353994    4.364702    5.900960
     14          1           0       -5.506370    3.710038    5.731532
     15          6           0       -8.317497    4.952914    7.183113
     16          1           0       -8.978588    4.776104    8.028758
     17          6           0       -6.648604    5.370498    4.983780
     18          1           0       -6.005683    5.509280    4.123518
     19          6           0       -8.604162    5.969851    6.273754
     20          1           0       -9.479860    6.592941    6.421472
     21          6           0       -7.770896    6.177973    5.172197
     22          1           0       -7.998804    6.964224    4.461135
     23          7           0       -8.047948    1.808161    5.204197
     24          1           0       -8.418694    2.742859    5.328777
     25          6           0       -7.703287    1.441823    3.811099
     26          1           0       -7.619355    0.356121    3.786503
     27          6           0       -6.315434    2.067194    3.503511
     28          6           0       -8.812704    1.909298    2.884511
     29          1           0       -8.654807    1.556451    1.860414
     30          1           0       -8.869240    3.002377    2.886023
     31          1           0       -9.764041    1.493539    3.225040
     32          8           0       -6.176159    3.043675    2.792623
     33          7           0       -5.292909    1.489219    4.210303
     34          1           0       -5.478314    0.600343    4.658972
     35          6           0       -3.889801    1.708515    3.884738
     36          1           0       -3.815723    2.693731    3.424167
     37          6           0       -3.438973    0.601249    2.914492
     38          6           0       -3.027392    1.631507    5.148980
     39          1           0       -1.980201    1.843034    4.915599
     40          1           0       -3.085827    0.628266    5.581415
     41          1           0       -3.369439    2.357009    5.894352
     42          8           0       -3.810673   -0.550132    3.112171
     43          7           0       -2.622448    0.973531    1.899460
     44          1           0       -2.128843    1.855548    1.914613
     45          6           0       -2.148689   -0.005510    0.941835
     46          1           0       -2.380587   -0.985280    1.361216
     47          6           0       -0.652473    0.186736    0.761239
     48          6           0       -2.883913    0.131455   -0.431872
     49          1           0       -2.580447    1.077881   -0.893354
     50          1           0       -2.532239   -0.673800   -1.088195
     51          8           0       -0.101990    1.272479    0.961847
     52          6           0       -4.368327    0.096018   -0.241061
     53          6           0       -5.045188    1.281115    0.071862
     54          1           0       -4.476648    2.202415    0.168268
     55          6           0       -5.112017   -1.088025   -0.316928
     56          1           0       -4.600308   -2.018918   -0.557972
     57          6           0       -6.399301    1.303620    0.283268
     58          1           0       -6.901651    2.233347    0.506885
     59          6           0       -6.469500   -1.103505   -0.083899
     60          1           0       -7.036051   -2.025360   -0.132709
     61          8           0       -8.441798    0.124743    0.451792
     62          6           0       -7.198466    0.104100    0.230112
     63          7           0        0.030311   -0.912110    0.326175
     64          1           0       -0.495143   -1.715610    0.007718
     65          6           0        1.420522   -0.789137   -0.092802
     66          1           0        1.834684    0.012045    0.520064
     67          6           0        1.470185   -0.386297   -1.573144
     68          6           0        2.190661   -2.088852    0.143024
     69          1           0        2.106625   -2.335035    1.209416
     70          1           0        1.701461   -2.891046   -0.423272
     71          8           0        1.399652   -1.216884   -2.476760
     72          6           0        3.680994   -2.037716   -0.245947
     73          1           0        3.733745   -1.966197   -1.342588
     74          6           0        4.405301   -0.824403    0.354443
     75          1           0        4.220701   -0.754312    1.434365
     76          1           0        5.488704   -0.909944    0.205192
     77          1           0        4.097808    0.114513   -0.114464
     78          6           0        4.360974   -3.344523    0.182593
     79          1           0        4.362033   -3.441413    1.275430
     80          1           0        3.843588   -4.219492   -0.231832
     81          1           0        5.404466   -3.376362   -0.156850
     82          7           0        1.562535    0.959755   -1.813235
     83          1           0        1.717374    1.553695   -1.006612
     84          6           0        2.122901    1.406530   -3.079075
     85          1           0        1.614697    0.849954   -3.865478
     86          6           0        3.621784    1.079332   -3.093901
     87          6           0        1.901817    2.922808   -3.273415
     88          1           0        0.876722    3.066950   -3.624384
     89          1           0        1.997844    3.415193   -2.300051
     90          8           0        4.381008    1.446105   -2.210358
     91          6           0        2.905282    3.589892   -4.223064
     92          1           0        3.914794    3.535229   -3.799285
     93          1           0        2.675114    4.655751   -4.338610
     94          6           0        2.965883    2.975392   -5.603222
     95          8           0        2.246008    2.093268   -6.031358
     96          8           0        3.965716    3.515569   -6.341311
     97          7           0        4.028811    0.362912   -4.183991
     98          1           0        3.363647    0.202759   -4.933137
     99          6           0        5.431056    0.098506   -4.451490
    100          1           0        5.952839    0.242262   -3.500607
    101          6           0        5.908679    1.148877   -5.453179
    102          6           0        5.619043   -1.326482   -4.963023
    103          1           0        5.050084   -1.461001   -5.895106
    104          1           0        5.159388   -1.992220   -4.218345
    105          8           0        5.758360    1.058525   -6.660219
    106          6           0        7.085114   -1.712323   -5.169301
    107          1           0        7.658762   -1.500043   -4.255240
    108          1           0        7.519352   -1.094311   -5.970161
    109          6           0        7.292766   -3.192225   -5.509227
    110          1           0        6.990287   -3.827945   -4.666738
    111          1           0        8.355062   -3.394020   -5.691906
    112          7           0        6.583572   -3.639547   -6.729090
    113          1           0        6.884274   -3.105076   -7.544399
    114          7           0        4.610970   -4.421109   -5.671265
    115          1           0        3.684889   -4.825278   -5.783158
    116          1           0        5.173524   -4.844220   -4.939413
    117          7           0        4.533905   -3.664151   -7.900277
    118          1           0        3.624549   -4.111244   -7.994997
    119          1           0        5.046128   -3.614471   -8.779568
    120          6           0        5.250002   -3.930311   -6.766340
    121          8           0        6.445227    2.220613   -4.848151
    122          1           0        4.031934    2.987773   -7.162531
    123          1           0        6.582084    2.899600   -5.540496
 ---------------------------------------------------------------------

 SCF Done:  E(RB3LYP) =  -2974.18258769     A.U. after    3 cycles

 Alpha  occ. eigenvalues --  -19.27924 -19.26310 -19.23332 -19.22422 -19.20847
 Alpha  occ. eigenvalues --  -19.18549 -19.17038 -19.16314 -19.15892 -19.14056
 Alpha  occ. eigenvalues --  -19.04368 -14.59149 -14.50924 -14.50853 -14.50659
 Alpha  occ. eigenvalues --  -14.46035 -14.43894 -14.41189 -14.41039 -14.39639
 Alpha  occ. eigenvalues --  -14.38721 -10.45684 -10.40362 -10.39996 -10.39012
 Alpha  occ. eigenvalues --  -10.38321 -10.35356 -10.35121 -10.33698 -10.32962
 Alpha  occ. eigenvalues --  -10.32947 -10.31986 -10.31969 -10.31368 -10.29712
 Alpha  occ. eigenvalues --  -10.29061 -10.28627 -10.28599 -10.28456 -10.27833
 Alpha  occ. eigenvalues --  -10.27425 -10.27339 -10.26742 -10.26629 -10.26524
 Alpha  occ. eigenvalues --  -10.26280 -10.26016 -10.25891 -10.25679 -10.24052
 Alpha  occ. eigenvalues --  -10.23567 -10.23508 -10.22746 -10.21709 -10.20658
 Alpha  occ. eigenvalues --  -10.19414 -10.19286 -10.16196 -10.15936 -10.15815
 Alpha  occ. eigenvalues --  -10.14024 -10.13645  -1.18837  -1.17117  -1.16483
 Alpha  occ. eigenvalues --   -1.14422  -1.12297  -1.10936  -1.09708  -1.08872
 Alpha  occ. eigenvalues --   -1.08152  -1.08106  -1.07925  -1.06154  -1.04514
 Alpha  occ. eigenvalues --   -1.03447  -1.02792  -1.00624  -0.98013  -0.97299
 Alpha  occ. eigenvalues --   -0.96384  -0.95390  -0.94692  -0.93774  -0.90674
 Alpha  occ. eigenvalues --   -0.90474  -0.87026  -0.86206  -0.85067  -0.84375
 Alpha  occ. eigenvalues --   -0.83041  -0.82312  -0.82095  -0.81020  -0.80520
 Alpha  occ. eigenvalues --   -0.79789  -0.78413  -0.77327  -0.77188  -0.76366
 Alpha  occ. eigenvalues --   -0.73151  -0.73047  -0.72592  -0.72242  -0.72005
 Alpha  occ. eigenvalues --   -0.71908  -0.71639  -0.71264  -0.70653  -0.69770
 Alpha  occ. eigenvalues --   -0.69192  -0.68422  -0.68313  -0.67552  -0.66894
 Alpha  occ. eigenvalues --   -0.66341  -0.66262  -0.64674  -0.64634  -0.64297
 Alpha  occ. eigenvalues --   -0.63109  -0.62976  -0.62811  -0.62805  -0.61939
 Alpha  occ. eigenvalues --   -0.61429  -0.61244  -0.60613  -0.60493  -0.59900
 Alpha  occ. eigenvalues --   -0.59131  -0.58905  -0.57799  -0.57451  -0.57260
 Alpha  occ. eigenvalues --   -0.56924  -0.56586  -0.56151  -0.56010  -0.55809
 Alpha  occ. eigenvalues --   -0.55364  -0.54919  -0.54837  -0.54391  -0.53979
 Alpha  occ. eigenvalues --   -0.53696  -0.53543  -0.53225  -0.52824  -0.52178
 Alpha  occ. eigenvalues --   -0.51913  -0.51564  -0.51471  -0.51008  -0.50689
 Alpha  occ. eigenvalues --   -0.50476  -0.50389  -0.49650  -0.49466  -0.49378
 Alpha  occ. eigenvalues --   -0.49298  -0.48575  -0.48530  -0.48281  -0.48045
 Alpha  occ. eigenvalues --   -0.47832  -0.47061  -0.47024  -0.46879  -0.46739
 Alpha  occ. eigenvalues --   -0.46059  -0.45839  -0.45583  -0.44971  -0.44965
 Alpha  occ. eigenvalues --   -0.44924  -0.44599  -0.44505  -0.44461  -0.44132
 Alpha  occ. eigenvalues --   -0.44069  -0.43905  -0.43379  -0.43108  -0.42897
 Alpha  occ. eigenvalues --   -0.42618  -0.42301  -0.42219  -0.41988  -0.41882
 Alpha  occ. eigenvalues --   -0.41815  -0.41634  -0.41413  -0.41291  -0.41113
 Alpha  occ. eigenvalues --   -0.40847  -0.40319  -0.40059  -0.39889  -0.39726
 Alpha  occ. eigenvalues --   -0.39633  -0.38823  -0.38731  -0.38670  -0.37888
 Alpha  occ. eigenvalues --   -0.37854  -0.37533  -0.37490  -0.37357  -0.36568
 Alpha  occ. eigenvalues --   -0.36264  -0.35854  -0.34290  -0.34203  -0.33611
 Alpha  occ. eigenvalues --   -0.32798  -0.32724  -0.32618  -0.32315  -0.32201
 Alpha  occ. eigenvalues --   -0.31384  -0.30710  -0.30429  -0.30084  -0.29232
 Alpha  occ. eigenvalues --   -0.28773  -0.28050  -0.27589  -0.26934  -0.22038
 Alpha  occ. eigenvalues --   -0.18066  -0.14136
 Alpha virt. eigenvalues --   -0.13376  -0.10102  -0.09227  -0.08739  -0.08530
 Alpha virt. eigenvalues --   -0.08219  -0.07981  -0.06502  -0.04726  -0.04573
 Alpha virt. eigenvalues --   -0.04477  -0.03673  -0.03384  -0.02744  -0.02457

 Mulliken charges:
               1
     1  N   -0.737489
     2  H    0.422510
     3  H    0.410400
     4  H    0.427236
     5  C   -0.134394
     6  H    0.214344
     7  C    0.669004
     8  C   -0.371192
     9  H    0.190814
    10  H    0.170577
    11  O   -0.562334
    12  C    0.119118
    13  C   -0.191214
    14  H    0.171237
    15  C   -0.191999
    16  H    0.125849
    17  C   -0.114677
    18  H    0.179757
    19  C   -0.127015
    20  H    0.155588
    21  C   -0.127352
    22  H    0.162286
    23  N   -0.572033
    24  H    0.363536
    25  C   -0.096584
    26  H    0.215035
    27  C    0.658915
    28  C   -0.494363
    29  H    0.279871
    30  H    0.136450
    31  H    0.135675
    32  O   -0.510391
    33  N   -0.615307
    34  H    0.358832
    35  C   -0.060579
    36  H    0.168216
    37  C    0.650737
    38  C   -0.463561
    39  H    0.164706
    40  H    0.165862
    41  H    0.138928
    42  O   -0.530384
    43  N   -0.598300
    44  H    0.338759
    45  C   -0.062367
    46  H    0.187307
    47  C    0.625748
    48  C   -0.361407
    49  H    0.142539
    50  H    0.126704
    51  O   -0.557309
    52  C    0.159048
    53  C   -0.174605
    54  H    0.081467
    55  C   -0.168966
    56  H    0.075091
    57  C   -0.238572
    58  H    0.112292
    59  C   -0.202156
    60  H    0.089944
    61  O   -0.644719
    62  C    0.409906
    63  N   -0.607552
    64  H    0.340007
    65  C   -0.058526
    66  H    0.177225
    67  C    0.630971
    68  C   -0.262708
    69  H    0.144418
    70  H    0.141706
    71  O   -0.546464
    72  C   -0.082353
    73  H    0.129043
    74  C   -0.464647
    75  H    0.141967
    76  H    0.136403
    77  H    0.173708
    78  C   -0.443041
    79  H    0.150481
    80  H    0.133525
    81  H    0.128301
    82  N   -0.591743
    83  H    0.350636
    84  C   -0.046940
    85  H    0.190767
    86  C    0.607936
    87  C   -0.271631
    88  H    0.184390
    89  H    0.161755
    90  O   -0.523497
    91  C   -0.392599
    92  H    0.208045
    93  H    0.198548
    94  C    0.590910
    95  O   -0.478871
    96  O   -0.574804
    97  N   -0.607251
    98  H    0.359013
    99  C   -0.021440
   100  H    0.204838
   101  C    0.590867
   102  C   -0.283397
   103  H    0.157232
   104  H    0.164905
   105  O   -0.496564
   106  C   -0.283593
   107  H    0.174665
   108  H    0.167145
   109  C   -0.182376
   110  H    0.166944
   111  H    0.197656
   112  N   -0.563910
   113  H    0.353980
   114  N   -0.720624
   115  H    0.372492
   116  H    0.376883
   117  N   -0.726708
   118  H    0.367516
   119  H    0.370294
   120  C    0.688001
   121  O   -0.541897
   122  H    0.421835
   123  H    0.423108
 Sum of Mulliken charges =   1.00000

 Dipole moment (field-independent basis, Debye):
    X=             10.2863    Y=             -5.5250    Z=              5.5699  Tot=             12.9366
 Quadrupole moment (field-independent basis, Debye-Ang):
   XX=           -144.1243   YY=           -263.9056   ZZ=             84.7302
   XY=           -120.8621   XZ=           -389.6893   YZ=            130.4173

 Normal termination of Gaussian 16 at Sun Aug  7 19:02:17 2022.
