 Gaussian 16, Revision C.01,
 Gaussian 16:  ES64L-G16RevC.01  3-Jul-2019

 ----------------------------------------------------------------------
 # B3LYP/6-31G* empiricaldispersion=gd3bj guess=read geom=check nosymm
 integral(ultrafinegrid)
 ----------------------------------------------------------------------

 ------------------------------------------------------
 Candidate Structure: Conf:962 Charge calc in gas phase
 ------------------------------------------------------
 Structure from the checkpoint file:  "conf-962.chk"
 Charge =  1 Multiplicity = 1

                          Input orientation:
 ---------------------------------------------------------------------
 Center     Atomic      Atomic             Coordinates (Angstroms)
 Number     Number       Type             X           Y           Z
 ---------------------------------------------------------------------
      1          7           0       -8.632506    0.467908    7.547492
      2          1           0       -8.525376   -0.545610    7.518480
      3          1           0       -9.323738    0.709563    8.254176
      4          1           0       -7.733188    0.849942    7.832333
      5          6           0       -9.006624    0.991489    6.221387
      6          1           0       -9.939234    0.513806    5.897126
      7          6           0       -7.921000    0.596921    5.224432
      8          6           0       -9.249723    2.506829    6.252336
      9          1           0      -10.104658    2.682545    6.912066
     10          1           0       -9.547864    2.828034    5.252062
     11          8           0       -6.890409    0.046943    5.595462
     12          6           0       -8.074695    3.314969    6.728149
     13          6           0       -7.919648    3.611950    8.081916
     14          1           0       -8.653287    3.245792    8.793232
     15          6           0       -7.119857    3.803677    5.833304
     16          1           0       -7.212119    3.584754    4.774843
     17          6           0       -6.837916    4.362783    8.539105
     18          1           0       -6.735665    4.568051    9.598075
     19          6           0       -6.059044    4.580479    6.282888
     20          1           0       -5.332968    4.945394    5.566258
     21          6           0       -5.901145    4.851215    7.635203
     22          1           0       -5.060240    5.441141    7.977597
     23          7           0       -8.166336    0.891905    3.925288
     24          1           0       -9.067647    1.253483    3.666166
     25          6           0       -7.262433    0.497012    2.851367
     26          1           0       -6.834042   -0.467212    3.139245
     27          6           0       -6.124702    1.515059    2.751580
     28          6           0       -7.996371    0.376773    1.530183
     29          1           0       -7.280951    0.162410    0.729024
     30          1           0       -8.493771    1.318772    1.292523
     31          1           0       -8.732918   -0.426074    1.579654
     32          8           0       -6.058339    2.354893    1.848462
     33          7           0       -5.212143    1.459919    3.741960
     34          1           0       -5.319408    0.765186    4.471059
     35          6           0       -3.993322    2.251899    3.706117
     36          1           0       -4.272555    3.238307    3.319716
     37          6           0       -3.002835    1.593687    2.730516
     38          6           0       -3.411537    2.361025    5.100529
     39          1           0       -2.580294    3.068237    5.110746
     40          1           0       -3.045512    1.390681    5.436461
     41          1           0       -4.181634    2.711173    5.796585
     42          8           0       -2.084807    0.874324    3.107788
     43          7           0       -3.252783    1.845878    1.421149
     44          1           0       -4.129016    2.301616    1.201279
     45          6           0       -2.579038    1.099633    0.376443
     46          1           0       -2.823696    0.038618    0.486580
     47          6           0       -1.064585    1.266935    0.490083
     48          6           0       -3.027792    1.598613   -1.004286
     49          1           0       -2.786742    2.659026   -1.065106
     50          1           0       -2.422804    1.091847   -1.760569
     51          8           0       -0.536082    2.357393    0.665342
     52          6           0       -4.479498    1.393497   -1.290958
     53          6           0       -5.300123    2.495332   -1.582992
     54          1           0       -4.866304    3.491068   -1.553999
     55          6           0       -5.049276    0.116280   -1.297146
     56          1           0       -4.424226   -0.738162   -1.062088
     57          6           0       -6.632916    2.359191   -1.885180
     58          1           0       -7.265336    3.209863   -2.098947
     59          6           0       -6.365747   -0.084690   -1.640916
     60          1           0       -6.811230   -1.071339   -1.650523
     61          8           0       -8.439437    0.888611   -2.199154
     62          6           0       -7.243809    1.040180   -1.930964
     63          7           0       -0.363514    0.108457    0.336861
     64          1           0       -0.808205   -0.706766   -0.052103
     65          6           0        1.080277    0.088425    0.299790
     66          1           0        1.405530    1.124202    0.391382
     67          6           0        1.514850   -0.489018   -1.048336
     68          6           0        1.688306   -0.746640    1.427637
     69          1           0        1.469874   -1.800136    1.237830
     70          1           0        2.775577   -0.634692    1.383557
     71          8           0        0.894618   -1.389647   -1.590644
     72          6           0        1.213314   -0.387105    2.837337
     73          1           0        0.139150   -0.570140    2.887373
     74          6           0        1.898887   -1.295595    3.853319
     75          1           0        2.980899   -1.145096    3.824587
     76          1           0        1.551937   -1.082599    4.867098
     77          1           0        1.694612   -2.347173    3.639331
     78          6           0        1.466544    1.080421    3.167076
     79          1           0        2.541411    1.286727    3.175852
     80          1           0        0.995518    1.747565    2.447754
     81          1           0        1.062766    1.322918    4.154167
     82          7           0        2.661926    0.014677   -1.556232
     83          1           0        3.178631    0.751690   -1.098325
     84          6           0        3.240784   -0.479566   -2.792794
     85          1           0        3.163300   -1.567501   -2.794866
     86          6           0        4.696562   -0.016253   -2.765300
     87          6           0        2.481956    0.071876   -4.012761
     88          1           0        1.445222   -0.246740   -3.899294
     89          1           0        2.496232    1.164239   -3.958803
     90          8           0        5.026066    1.006828   -2.193235
     91          6           0        3.022304   -0.359718   -5.382699
     92          1           0        4.033523    0.007417   -5.531606
     93          1           0        2.387564    0.053948   -6.168191
     94          6           0        3.049900   -1.852205   -5.492409
     95          8           0        3.943359   -2.550884   -5.063097
     96          8           0        1.953128   -2.364361   -6.083006
     97          7           0        5.588563   -0.795859   -3.420297
     98          1           0        5.247430   -1.577864   -3.970512
     99          6           0        6.948845   -0.333505   -3.607233
    100          1           0        7.308792    0.054003   -2.649557
    101          6           0        6.990076    0.797820   -4.618968
    102          6           0        7.820937   -1.510624   -4.064827
    103          1           0        7.446364   -1.859145   -5.028332
    104          1           0        7.656664   -2.314208   -3.341807
    105          8           0        6.238985    0.930596   -5.550935
    106          6           0        9.303964   -1.188593   -4.141523
    107          1           0        9.640503   -0.759736   -3.193363
    108          1           0        9.488423   -0.442708   -4.909797
    109          6           0       10.155859   -2.415609   -4.438334
    110          1           0       10.051978   -3.146282   -3.633366
    111          1           0       11.216706   -2.150159   -4.474644
    112          7           0        9.795306   -3.131424   -5.677298
    113          1           0        9.028175   -3.781528   -5.585938
    114          7           0       10.620081   -1.441594   -7.054307
    115          1           0       10.933503   -1.173521   -7.972977
    116          1           0       11.192362   -1.127989   -6.287831
    117          7           0        9.331229   -3.182571   -7.955293
    118          1           0        9.644620   -2.914235   -8.876350
    119          1           0        9.088264   -4.159716   -7.861291
    120          6           0        9.933826   -2.589377   -6.894236
    121          8           0        8.016775    1.640177   -4.374927
    122          1           0        2.057118   -3.325480   -6.075926
    123          1           0        7.989764    2.313212   -5.065595
 ---------------------------------------------------------------------

 SCF Done:  E(RB3LYP) =  -2974.16380635     A.U. after    3 cycles

 Alpha  occ. eigenvalues --  -19.27543 -19.26026 -19.24349 -19.21978 -19.21108
 Alpha  occ. eigenvalues --  -19.17886 -19.16419 -19.14749 -19.13590 -19.12117
 Alpha  occ. eigenvalues --  -19.03148 -14.61869 -14.50916 -14.50743 -14.50522
 Alpha  occ. eigenvalues --  -14.47246 -14.42010 -14.40924 -14.39491 -14.36894
 Alpha  occ. eigenvalues --  -14.36694 -10.45146 -10.41475 -10.40104 -10.39683
 Alpha  occ. eigenvalues --  -10.38714 -10.35293 -10.34591 -10.33579 -10.33141
 Alpha  occ. eigenvalues --  -10.31739 -10.31569 -10.30335 -10.30087 -10.30063
 Alpha  occ. eigenvalues --  -10.29622 -10.29376 -10.29357 -10.29200 -10.28292
 Alpha  occ. eigenvalues --  -10.28207 -10.28105 -10.27827 -10.27671 -10.27058
 Alpha  occ. eigenvalues --  -10.24938 -10.24781 -10.24470 -10.23800 -10.22279
 Alpha  occ. eigenvalues --  -10.21767 -10.20478 -10.19636 -10.19002 -10.18679
 Alpha  occ. eigenvalues --  -10.18455 -10.17521 -10.15706 -10.15253 -10.15118
 Alpha  occ. eigenvalues --  -10.13611 -10.13087  -1.18850  -1.18549  -1.17495
 Alpha  occ. eigenvalues --   -1.15399  -1.15357  -1.10795  -1.09752  -1.08619
 Alpha  occ. eigenvalues --   -1.08564  -1.07321  -1.05643  -1.05037  -1.04085
 Alpha  occ. eigenvalues --   -1.04065  -1.03652  -0.99677  -0.97562  -0.96503
 Alpha  occ. eigenvalues --   -0.96474  -0.93969  -0.93899  -0.93697  -0.92890
 Alpha  occ. eigenvalues --   -0.91249  -0.86475  -0.86458  -0.85083  -0.83980
 Alpha  occ. eigenvalues --   -0.83959  -0.83073  -0.81795  -0.80858  -0.80181
 Alpha  occ. eigenvalues --   -0.79194  -0.78966  -0.77611  -0.76925  -0.75657
 Alpha  occ. eigenvalues --   -0.75417  -0.74493  -0.73571  -0.72679  -0.71877
 Alpha  occ. eigenvalues --   -0.71253  -0.71086  -0.70838  -0.70182  -0.70105
 Alpha  occ. eigenvalues --   -0.69523  -0.69190  -0.68835  -0.68167  -0.67520
 Alpha  occ. eigenvalues --   -0.66476  -0.65653  -0.65236  -0.64625  -0.64036
 Alpha  occ. eigenvalues --   -0.63740  -0.63371  -0.62538  -0.62123  -0.61925
 Alpha  occ. eigenvalues --   -0.61139  -0.60994  -0.59975  -0.59740  -0.59495
 Alpha  occ. eigenvalues --   -0.58556  -0.58139  -0.57680  -0.57520  -0.57083
 Alpha  occ. eigenvalues --   -0.56898  -0.56624  -0.56468  -0.56278  -0.56222
 Alpha  occ. eigenvalues --   -0.55937  -0.55334  -0.54854  -0.54641  -0.54348
 Alpha  occ. eigenvalues --   -0.53429  -0.53196  -0.53015  -0.52764  -0.52251
 Alpha  occ. eigenvalues --   -0.51736  -0.51577  -0.51527  -0.50940  -0.50890
 Alpha  occ. eigenvalues --   -0.50700  -0.50418  -0.50299  -0.49675  -0.49572
 Alpha  occ. eigenvalues --   -0.49267  -0.49087  -0.48206  -0.47447  -0.47174
 Alpha  occ. eigenvalues --   -0.46423  -0.46232  -0.46183  -0.45924  -0.45770
 Alpha  occ. eigenvalues --   -0.45375  -0.45272  -0.45126  -0.44971  -0.44613
 Alpha  occ. eigenvalues --   -0.44346  -0.44169  -0.43912  -0.43910  -0.43360
 Alpha  occ. eigenvalues --   -0.43315  -0.43141  -0.42886  -0.42660  -0.42315
 Alpha  occ. eigenvalues --   -0.42187  -0.42090  -0.41584  -0.41505  -0.41389
 Alpha  occ. eigenvalues --   -0.41147  -0.40927  -0.40492  -0.40331  -0.40118
 Alpha  occ. eigenvalues --   -0.40092  -0.39837  -0.39518  -0.39434  -0.39075
 Alpha  occ. eigenvalues --   -0.38578  -0.38466  -0.38455  -0.38295  -0.37544
 Alpha  occ. eigenvalues --   -0.37062  -0.35843  -0.35715  -0.34683  -0.34629
 Alpha  occ. eigenvalues --   -0.34613  -0.34352  -0.34138  -0.33684  -0.33652
 Alpha  occ. eigenvalues --   -0.33508  -0.32589  -0.31761  -0.31472  -0.31394
 Alpha  occ. eigenvalues --   -0.30799  -0.29926  -0.29172  -0.28959  -0.27824
 Alpha  occ. eigenvalues --   -0.26830  -0.26610  -0.26261  -0.25414  -0.21775
 Alpha  occ. eigenvalues --   -0.16725  -0.13020
 Alpha virt. eigenvalues --   -0.12415  -0.11820  -0.10881  -0.10199  -0.08850
 Alpha virt. eigenvalues --   -0.08310  -0.07149  -0.05940  -0.05711  -0.05120
 Alpha virt. eigenvalues --   -0.04743  -0.03847  -0.03685  -0.03238  -0.02403

 Mulliken charges:
               1
     1  N   -0.700541
     2  H    0.428391
     3  H    0.414228
     4  H    0.427402
     5  C   -0.150497
     6  H    0.222652
     7  C    0.655245
     8  C   -0.386987
     9  H    0.180916
    10  H    0.210268
    11  O   -0.538185
    12  C    0.154491
    13  C   -0.221254
    14  H    0.108331
    15  C   -0.176670
    16  H    0.173363
    17  C   -0.120914
    18  H    0.157142
    19  C   -0.130295
    20  H    0.175707
    21  C   -0.119999
    22  H    0.166320
    23  N   -0.593823
    24  H    0.347244
    25  C   -0.077328
    26  H    0.185705
    27  C    0.630861
    28  C   -0.472291
    29  H    0.237528
    30  H    0.181167
    31  H    0.143468
    32  O   -0.514235
    33  N   -0.612664
    34  H    0.361522
    35  C   -0.056124
    36  H    0.171520
    37  C    0.631309
    38  C   -0.478936
    39  H    0.174026
    40  H    0.173954
    41  H    0.131834
    42  O   -0.534297
    43  N   -0.612683
    44  H    0.381526
    45  C   -0.025189
    46  H    0.140057
    47  C    0.657518
    48  C   -0.387252
    49  H    0.160772
    50  H    0.142058
    51  O   -0.543901
    52  C    0.138518
    53  C   -0.178868
    54  H    0.087518
    55  C   -0.182954
    56  H    0.078691
    57  C   -0.211335
    58  H    0.090833
    59  C   -0.240231
    60  H    0.084881
    61  O   -0.622885
    62  C    0.419168
    63  N   -0.597531
    64  H    0.337167
    65  C   -0.075211
    66  H    0.179147
    67  C    0.626958
    68  C   -0.253045
    69  H    0.135296
    70  H    0.119873
    71  O   -0.547227
    72  C   -0.074491
    73  H    0.169627
    74  C   -0.439767
    75  H    0.128320
    76  H    0.138893
    77  H    0.131681
    78  C   -0.465143
    79  H    0.113246
    80  H    0.193331
    81  H    0.135869
    82  N   -0.627630
    83  H    0.355835
    84  C   -0.036226
    85  H    0.180597
    86  C    0.606758
    87  C   -0.286218
    88  H    0.202623
    89  H    0.173441
    90  O   -0.533739
    91  C   -0.379652
    92  H    0.209842
    93  H    0.183897
    94  C    0.589263
    95  O   -0.494398
    96  O   -0.538298
    97  N   -0.645938
    98  H    0.379928
    99  C   -0.013766
   100  H    0.200638
   101  C    0.594927
   102  C   -0.315103
   103  H    0.155639
   104  H    0.169559
   105  O   -0.451088
   106  C   -0.275980
   107  H    0.181889
   108  H    0.163228
   109  C   -0.200845
   110  H    0.196047
   111  H    0.178534
   112  N   -0.571106
   113  H    0.360017
   114  N   -0.735372
   115  H    0.368784
   116  H    0.377770
   117  N   -0.738454
   118  H    0.364326
   119  H    0.368603
   120  C    0.715802
   121  O   -0.561038
   122  H    0.415339
   123  H    0.418777
 Sum of Mulliken charges =   1.00000

 Dipole moment (field-independent basis, Debye):
    X=             18.7525    Y=             -9.7115    Z=              8.1480  Tot=             22.6354
 Quadrupole moment (field-independent basis, Debye-Ang):
   XX=            229.1297   YY=           -317.7839   ZZ=             46.6376
   XY=           -105.0092   XZ=           -580.1130   YZ=            108.4258

 Normal termination of Gaussian 16 at Sun Aug  7 19:02:16 2022.
