 Gaussian 16, Revision C.01,
 Gaussian 16:  ES64L-G16RevC.01  3-Jul-2019

 ----------------------------------------------------------------------
 # B3LYP/6-31G* empiricaldispersion=gd3bj guess=read geom=check nosymm
 integral(ultrafinegrid)
 ----------------------------------------------------------------------

 ------------------------------------------------------
 Candidate Structure: Conf:497 Charge calc in gas phase
 ------------------------------------------------------
 Structure from the checkpoint file:  "conf-497.chk"
 Charge =  1 Multiplicity = 1

                          Input orientation:
 ---------------------------------------------------------------------
 Center     Atomic      Atomic             Coordinates (Angstroms)
 Number     Number       Type             X           Y           Z
 ---------------------------------------------------------------------
      1          7           0       -9.767007   -3.522410    8.818314
      2          1           0       -9.761210   -4.191872    7.996730
      3          1           0      -10.708609   -3.362491    9.181016
      4          1           0       -9.168513   -3.921850    9.561428
      5          6           0       -9.105232   -2.294132    8.242603
      6          1           0       -9.901008   -1.598614    7.960744
      7          6           0       -8.451381   -2.850860    6.947603
      8          6           0       -8.151426   -1.646502    9.268833
      9          1           0       -8.756194   -1.218346   10.076422
     10          1           0       -7.652897   -0.801313    8.784389
     11          8           0       -8.790490   -3.983136    6.573908
     12          6           0       -7.149234   -2.635738    9.818342
     13          6           0       -7.462969   -3.380129   10.967751
     14          1           0       -8.363808   -3.146813   11.535334
     15          6           0       -5.934756   -2.876116    9.160946
     16          1           0       -5.657773   -2.281934    8.294795
     17          6           0       -6.591777   -4.366852   11.437587
     18          1           0       -6.841162   -4.926479   12.333725
     19          6           0       -5.064788   -3.855561    9.637699
     20          1           0       -4.121000   -4.025904    9.128731
     21          6           0       -5.394407   -4.609858   10.766449
     22          1           0       -4.711793   -5.370904   11.131018
     23          7           0       -7.600514   -2.052956    6.318517
     24          1           0       -7.214441   -1.218180    6.762700
     25          6           0       -6.772676   -2.485067    5.195055
     26          1           0       -6.555052   -3.551140    5.322972
     27          6           0       -5.467187   -1.674195    5.355777
     28          6           0       -7.467974   -2.259699    3.847920
     29          1           0       -6.839830   -2.604209    3.021259
     30          1           0       -7.684547   -1.197849    3.697358
     31          1           0       -8.404920   -2.822293    3.818982
     32          8           0       -5.360933   -0.855535    6.282592
     33          7           0       -4.515576   -1.924351    4.457973
     34          1           0       -4.650671   -2.551513    3.664098
     35          6           0       -3.247806   -1.211930    4.390542
     36          1           0       -3.441746   -0.137215    4.484053
     37          6           0       -2.699982   -1.522845    2.982241
     38          6           0       -2.279098   -1.652324    5.496737
     39          1           0       -1.337065   -1.099826    5.431042
     40          1           0       -2.060127   -2.720932    5.406267
     41          1           0       -2.727008   -1.456867    6.474266
     42          8           0       -3.245298   -2.380426    2.279308
     43          7           0       -1.616143   -0.825936    2.620879
     44          1           0       -1.188559   -0.127303    3.223037
     45          6           0       -0.939681   -0.987991    1.343182
     46          1           0       -0.879204   -2.055542    1.112536
     47          6           0        0.466135   -0.410221    1.552362
     48          6           0       -1.718389   -0.270365    0.203255
     49          1           0       -2.709266   -0.739722    0.180717
     50          1           0       -1.858897    0.773393    0.506734
     51          8           0        0.677282    0.421511    2.438454
     52          6           0       -1.040448   -0.328866   -1.142399
     53          6           0       -0.607642    0.839288   -1.783457
     54          1           0       -0.814788    1.803528   -1.321596
     55          6           0       -0.790445   -1.549573   -1.792464
     56          1           0       -1.156058   -2.476517   -1.350382
     57          6           0        0.070742    0.798628   -2.996144
     58          1           0        0.366473    1.720068   -3.492181
     59          6           0       -0.082442   -1.605916   -2.987092
     60          1           0        0.118620   -2.564468   -3.459253
     61          8           0        1.182499   -0.478028   -4.677766
     62          6           0        0.420680   -0.431476   -3.608539
     63          7           0        1.414989   -0.895730    0.723313
     64          1           0        1.118386   -1.424362   -0.093488
     65          6           0        2.745361   -0.305945    0.613897
     66          1           0        2.751495    0.597619    1.226740
     67          6           0        2.937311   -0.001728   -0.868105
     68          6           0        3.836179   -1.292737    1.070369
     69          1           0        3.675787   -1.506629    2.134576
     70          1           0        3.673467   -2.229497    0.523382
     71          8           0        2.644460   -0.870395   -1.693638
     72          6           0        5.279277   -0.811019    0.836454
     73          1           0        5.396605   -0.571792   -0.230195
     74          6           0        5.606560    0.450822    1.645762
     75          1           0        5.474480    0.271229    2.720110
     76          1           0        6.644275    0.759821    1.481330
     77          1           0        4.968921    1.300156    1.374347
     78          6           0        6.263880   -1.936750    1.175429
     79          1           0        6.193569   -2.214455    2.234767
     80          1           0        6.060178   -2.834992    0.580778
     81          1           0        7.296434   -1.628247    0.978674
     82          7           0        3.427725    1.200166   -1.212635
     83          1           0        3.604361    1.879608   -0.486559
     84          6           0        3.493396    1.627213   -2.601642
     85          1           0        2.470591    1.736342   -2.972734
     86          6           0        4.257112    0.632525   -3.497142
     87          6           0        4.240569    2.976405   -2.694062
     88          1           0        4.001684    3.588390   -1.814630
     89          1           0        5.316275    2.777230   -2.674434
     90          8           0        5.317304    0.125476   -3.145997
     91          6           0        3.857454    3.768869   -3.961544
     92          1           0        2.906761    4.286482   -3.814301
     93          1           0        3.741345    3.091077   -4.809732
     94          6           0        4.927849    4.766001   -4.336951
     95          8           0        6.032480    4.487012   -4.772482
     96          8           0        4.555420    6.039205   -4.119961
     97          7           0        3.699907    0.560244   -4.739239
     98          1           0        2.665027    0.506142   -4.784562
     99          6           0        4.450919    0.235648   -5.957082
    100          1           0        5.204548   -0.528588   -5.739027
    101          6           0        5.165662    1.563698   -6.284813
    102          6           0        3.516180   -0.168816   -7.117989
    103          1           0        3.829704    0.407893   -7.991212
    104          1           0        2.496216    0.161887   -6.892911
    105          8           0        4.791776    2.351314   -7.129317
    106          6           0        3.504561   -1.656565   -7.502171
    107          1           0        4.535581   -2.033403   -7.512472
    108          1           0        3.142074   -1.751514   -8.533058
    109          6           0        2.597669   -2.547913   -6.637489
    110          1           0        2.686074   -3.602146   -6.934805
    111          1           0        1.555498   -2.256486   -6.787800
    112          7           0        2.818312   -2.405425   -5.201506
    113          1           0        2.145894   -1.667417   -4.771172
    114          7           0        4.908541   -3.456657   -5.242817
    115          1           0        5.522879   -4.042297   -4.695518
    116          1           0        4.770702   -3.737768   -6.200845
    117          7           0        4.077273   -2.633858   -3.255384
    118          1           0        5.020451   -2.369515   -2.989201
    119          1           0        3.395175   -2.032620   -2.785456
    120          6           0        3.905589   -2.813806   -4.584560
    121          8           0        6.162406    1.803910   -5.422674
    122          1           0        5.304666    6.602842   -4.394880
    123          1           0        6.357042    2.772371   -5.435587
 ---------------------------------------------------------------------

 SCF Done:  E(RB3LYP) =  -2974.31819395     A.U. after    3 cycles

 Alpha  occ. eigenvalues --  -19.26254 -19.25385 -19.21919 -19.21370 -19.19979
 Alpha  occ. eigenvalues --  -19.18928 -19.18094 -19.17423 -19.16876 -19.15887
 Alpha  occ. eigenvalues --  -19.11856 -14.58782 -14.48616 -14.44943 -14.44131
 Alpha  occ. eigenvalues --  -14.42700 -14.42523 -14.41294 -14.41206 -14.40748
 Alpha  occ. eigenvalues --  -14.38607 -10.42988 -10.40367 -10.38748 -10.38646
 Alpha  occ. eigenvalues --  -10.38057 -10.35946 -10.34868 -10.34769 -10.34342
 Alpha  occ. eigenvalues --  -10.34268 -10.33841 -10.32838 -10.31811 -10.31521
 Alpha  occ. eigenvalues --  -10.30750 -10.30036 -10.29723 -10.29660 -10.29536
 Alpha  occ. eigenvalues --  -10.28873 -10.28634 -10.28477 -10.28106 -10.27903
 Alpha  occ. eigenvalues --  -10.27586 -10.25841 -10.25786 -10.25255 -10.25039
 Alpha  occ. eigenvalues --  -10.24362 -10.23654 -10.23552 -10.23456 -10.22858
 Alpha  occ. eigenvalues --  -10.22266 -10.21839 -10.21075 -10.21018 -10.20867
 Alpha  occ. eigenvalues --  -10.19564 -10.19384  -1.18744  -1.16432  -1.13817
 Alpha  occ. eigenvalues --   -1.13021  -1.12972  -1.10909  -1.10518  -1.09086
 Alpha  occ. eigenvalues --   -1.07644  -1.07215  -1.07143  -1.05627  -1.04134
 Alpha  occ. eigenvalues --   -1.01747  -0.99917  -0.99257  -0.99093  -0.98049
 Alpha  occ. eigenvalues --   -0.97320  -0.96827  -0.95889  -0.95562  -0.92925
 Alpha  occ. eigenvalues --   -0.88708  -0.87318  -0.86606  -0.86100  -0.85876
 Alpha  occ. eigenvalues --   -0.85476  -0.84544  -0.84350  -0.82111  -0.80599
 Alpha  occ. eigenvalues --   -0.79638  -0.79429  -0.77543  -0.76582  -0.76100
 Alpha  occ. eigenvalues --   -0.75544  -0.74053  -0.73969  -0.73613  -0.73024
 Alpha  occ. eigenvalues --   -0.72621  -0.71157  -0.70904  -0.70383  -0.69883
 Alpha  occ. eigenvalues --   -0.69508  -0.69183  -0.68677  -0.67369  -0.66753
 Alpha  occ. eigenvalues --   -0.66522  -0.66029  -0.65038  -0.64549  -0.64219
 Alpha  occ. eigenvalues --   -0.63600  -0.63310  -0.62634  -0.62420  -0.61760
 Alpha  occ. eigenvalues --   -0.61063  -0.60910  -0.60750  -0.60393  -0.59744
 Alpha  occ. eigenvalues --   -0.59258  -0.58653  -0.57506  -0.57066  -0.56717
 Alpha  occ. eigenvalues --   -0.56692  -0.56643  -0.56158  -0.55932  -0.55854
 Alpha  occ. eigenvalues --   -0.54985  -0.54828  -0.54562  -0.54288  -0.53841
 Alpha  occ. eigenvalues --   -0.53592  -0.53074  -0.52995  -0.52747  -0.52463
 Alpha  occ. eigenvalues --   -0.52208  -0.52132  -0.51646  -0.51584  -0.51296
 Alpha  occ. eigenvalues --   -0.51221  -0.51092  -0.50881  -0.50628  -0.50422
 Alpha  occ. eigenvalues --   -0.50011  -0.49920  -0.49287  -0.48825  -0.48496
 Alpha  occ. eigenvalues --   -0.48428  -0.48190  -0.47905  -0.47850  -0.47491
 Alpha  occ. eigenvalues --   -0.47184  -0.47155  -0.46859  -0.46794  -0.46633
 Alpha  occ. eigenvalues --   -0.46235  -0.45720  -0.45647  -0.45447  -0.45193
 Alpha  occ. eigenvalues --   -0.45170  -0.45079  -0.44896  -0.44417  -0.44132
 Alpha  occ. eigenvalues --   -0.43736  -0.43549  -0.43370  -0.43151  -0.42979
 Alpha  occ. eigenvalues --   -0.42638  -0.42492  -0.42079  -0.42035  -0.41216
 Alpha  occ. eigenvalues --   -0.40994  -0.40825  -0.40789  -0.40466  -0.40113
 Alpha  occ. eigenvalues --   -0.40027  -0.39216  -0.39070  -0.38829  -0.38491
 Alpha  occ. eigenvalues --   -0.37972  -0.37496  -0.37335  -0.37296  -0.37170
 Alpha  occ. eigenvalues --   -0.36333  -0.36316  -0.36048  -0.35836  -0.35083
 Alpha  occ. eigenvalues --   -0.34847  -0.34630  -0.33496  -0.33401  -0.33168
 Alpha  occ. eigenvalues --   -0.32861  -0.32527  -0.32157  -0.31929  -0.31209
 Alpha  occ. eigenvalues --   -0.30957  -0.30105  -0.29223  -0.27973  -0.26959
 Alpha  occ. eigenvalues --   -0.26655  -0.21024
 Alpha virt. eigenvalues --   -0.12511  -0.11922  -0.11830  -0.08268  -0.07539
 Alpha virt. eigenvalues --   -0.05167  -0.04818  -0.04787  -0.04518  -0.03808
 Alpha virt. eigenvalues --   -0.03776  -0.02647  -0.02508  -0.02363  -0.01239

 Mulliken charges:
               1
     1  N   -0.756651
     2  H    0.432725
     3  H    0.408875
     4  H    0.402800
     5  C   -0.113705
     6  H    0.227783
     7  C    0.653999
     8  C   -0.396073
     9  H    0.188550
    10  H    0.210977
    11  O   -0.540228
    12  C    0.140100
    13  C   -0.243816
    14  H    0.143032
    15  C   -0.186054
    16  H    0.175813
    17  C   -0.118114
    18  H    0.164553
    19  C   -0.129715
    20  H    0.163790
    21  C   -0.121394
    22  H    0.166773
    23  N   -0.601792
    24  H    0.375445
    25  C   -0.066829
    26  H    0.202049
    27  C    0.636067
    28  C   -0.452502
    29  H    0.183160
    30  H    0.172669
    31  H    0.184095
    32  O   -0.558483
    33  N   -0.619364
    34  H    0.371596
    35  C   -0.043769
    36  H    0.185824
    37  C    0.628950
    38  C   -0.453195
    39  H    0.170705
    40  H    0.162911
    41  H    0.177514
    42  O   -0.551299
    43  N   -0.623490
    44  H    0.357640
    45  C   -0.048836
    46  H    0.177707
    47  C    0.613903
    48  C   -0.346117
    49  H    0.172495
    50  H    0.143980
    51  O   -0.551596
    52  C    0.143719
    53  C   -0.197395
    54  H    0.106749
    55  C   -0.226145
    56  H    0.113220
    57  C   -0.214081
    58  H    0.107532
    59  C   -0.190268
    60  H    0.102540
    61  O   -0.745534
    62  C    0.454838
    63  N   -0.610516
    64  H    0.373406
    65  C   -0.062038
    66  H    0.174129
    67  C    0.664017
    68  C   -0.250783
    69  H    0.147736
    70  H    0.145238
    71  O   -0.568129
    72  C   -0.103672
    73  H    0.159272
    74  C   -0.443433
    75  H    0.148251
    76  H    0.156200
    77  H    0.120156
    78  C   -0.443035
    79  H    0.142944
    80  H    0.138413
    81  H    0.151038
    82  N   -0.624969
    83  H    0.341685
    84  C    0.004686
    85  H    0.180070
    86  C    0.620470
    87  C   -0.329979
    88  H    0.148618
    89  H    0.202068
    90  O   -0.547439
    91  C   -0.369158
    92  H    0.179674
    93  H    0.216947
    94  C    0.596237
    95  O   -0.483221
    96  O   -0.544556
    97  N   -0.670805
    98  H    0.396022
    99  C   -0.000370
   100  H    0.168306
   101  C    0.570684
   102  C   -0.311716
   103  H    0.186337
   104  H    0.182910
   105  O   -0.471658
   106  C   -0.287037
   107  H    0.134998
   108  H    0.159201
   109  C   -0.180701
   110  H    0.147603
   111  H    0.194536
   112  N   -0.598967
   113  H    0.442257
   114  N   -0.750288
   115  H    0.360894
   116  H    0.363085
   117  N   -0.790208
   118  H    0.359439
   119  H    0.429636
   120  C    0.725393
   121  O   -0.583422
   122  H    0.419654
   123  H    0.445258
 Sum of Mulliken charges =   1.00000

 Dipole moment (field-independent basis, Debye):
    X=            -26.3446    Y=            -14.4830    Z=             30.9429  Tot=             43.1423
 Quadrupole moment (field-independent basis, Debye-Ang):
   XX=            -15.9023   YY=           -279.5807   ZZ=            -24.3693
   XY=             79.0428   XZ=           -330.5648   YZ=            -81.6705

 Normal termination of Gaussian 16 at Sun Aug  7 18:56:52 2022.
