 Gaussian 16, Revision C.01,
 Gaussian 16:  ES64L-G16RevC.01  3-Jul-2019

 ----------------------------------------------------------------------
 # B3LYP/6-31G* empiricaldispersion=gd3bj guess=read geom=check nosymm
 integral(ultrafinegrid)
 ----------------------------------------------------------------------

 ------------------------------------------------------
 Candidate Structure: Conf:112 Charge calc in gas phase
 ------------------------------------------------------
 Structure from the checkpoint file:  "conf-112.chk"
 Charge =  1 Multiplicity = 1

                          Input orientation:
 ---------------------------------------------------------------------
 Center     Atomic      Atomic             Coordinates (Angstroms)
 Number     Number       Type             X           Y           Z
 ---------------------------------------------------------------------
      1          7           0       -9.709854    3.781243    4.485366
      2          1           0      -10.384703    3.767649    3.715449
      3          1           0      -10.174261    4.103284    5.348874
      4          1           0       -9.328195    2.815684    4.588649
      5          6           0       -8.506339    4.624442    4.187765
      6          1           0       -8.811714    5.499282    3.609015
      7          6           0       -7.580067    3.698541    3.396870
      8          6           0       -7.870776    5.081060    5.515440
      9          1           0       -6.961840    5.644535    5.283179
     10          1           0       -7.558806    4.192450    6.077188
     11          8           0       -7.714231    2.476085    3.592919
     12          6           0       -8.848547    5.899817    6.328435
     13          6           0       -9.234754    7.181271    5.905519
     14          1           0       -8.796640    7.607225    5.005259
     15          6           0       -9.433954    5.360068    7.483024
     16          1           0       -9.148153    4.364739    7.818375
     17          6           0      -10.166404    7.914948    6.636082
     18          1           0      -10.446577    8.910058    6.304807
     19          6           0      -10.378596    6.091441    8.208899
     20          1           0      -10.822295    5.661976    9.101680
     21          6           0      -10.742380    7.370193    7.787989
     22          1           0      -11.469850    7.942900    8.354342
     23          7           0       -6.672656    4.264621    2.607113
     24          1           0       -6.669722    5.271420    2.492062
     25          6           0       -5.774281    3.501389    1.714428
     26          1           0       -6.327909    2.606050    1.411094
     27          6           0       -4.518210    3.049684    2.478611
     28          6           0       -5.396087    4.356461    0.512873
     29          1           0       -4.677668    3.826916   -0.118934
     30          1           0       -4.907599    5.279845    0.839878
     31          1           0       -6.287564    4.601618   -0.073959
     32          8           0       -3.415744    3.475830    2.157207
     33          7           0       -4.690658    2.159948    3.494116
     34          1           0       -5.616034    1.818256    3.726336
     35          6           0       -3.502808    1.643962    4.184885
     36          1           0       -2.769201    2.450904    4.088095
     37          6           0       -2.927239    0.409089    3.445442
     38          6           0       -3.778510    1.327083    5.647356
     39          1           0       -2.861358    0.990970    6.133551
     40          1           0       -4.515667    0.522687    5.742988
     41          1           0       -4.150927    2.218461    6.163600
     42          8           0       -2.603134   -0.619320    4.035185
     43          7           0       -2.880900    0.556516    2.100616
     44          1           0       -2.979565    1.484400    1.693848
     45          6           0       -2.280381   -0.410726    1.230069
     46          1           0       -2.388726   -1.405508    1.674879
     47          6           0       -0.786091   -0.122883    1.085153
     48          6           0       -2.999035   -0.453185   -0.145748
     49          1           0       -2.491449   -1.252943   -0.713207
     50          1           0       -4.024265   -0.795349    0.033627
     51          8           0       -0.253574    0.935439    1.382957
     52          6           0       -3.079386    0.833050   -0.908475
     53          6           0       -4.339403    1.403981   -1.172452
     54          1           0       -5.224422    0.891603   -0.783468
     55          6           0       -1.956156    1.516374   -1.419340
     56          1           0       -0.963380    1.111896   -1.234923
     57          6           0       -4.497421    2.545884   -1.940505
     58          1           0       -5.486487    2.941269   -2.167483
     59          6           0       -2.076442    2.674822   -2.157050
     60          1           0       -1.199156    3.183991   -2.541048
     61          8           0       -3.476281    4.222061   -3.306632
     62          6           0       -3.363909    3.234576   -2.533773
     63          7           0       -0.080072   -1.154263    0.507186
     64          1           0       -0.560908   -2.012047    0.271485
     65          6           0        1.358534   -1.101372    0.369801
     66          1           0        1.632909   -0.081450    0.657248
     67          6           0        1.719681   -1.264611   -1.115404
     68          6           0        2.070018   -2.109173    1.274503
     69          1           0        1.787264   -3.123161    0.960956
     70          1           0        3.153873   -2.019995    1.112626
     71          8           0        2.263116   -2.298260   -1.574596
     72          6           0        1.773390   -1.939091    2.773798
     73          1           0        0.685455   -1.977124    2.918181
     74          6           0        2.399251   -3.106514    3.547637
     75          1           0        3.486730   -3.137975    3.395141
     76          1           0        2.215773   -3.009530    4.622330
     77          1           0        1.983791   -4.069502    3.224614
     78          6           0        2.275007   -0.593607    3.313526
     79          1           0        3.365523   -0.514029    3.204448
     80          1           0        1.811401    0.253258    2.800068
     81          1           0        2.039179   -0.499885    4.378432
     82          7           0        1.349097   -0.245732   -1.915351
     83          1           0        1.243775    0.658652   -1.462947
     84          6           0        1.766600   -0.190584   -3.320910
     85          1           0        1.670104   -1.205853   -3.713843
     86          6           0        3.237632    0.249185   -3.359207
     87          6           0        0.910277    0.793547   -4.129809
     88          1           0        0.951613    1.775020   -3.648508
     89          1           0        1.376458    0.906786   -5.115548
     90          8           0        3.616860    1.275062   -2.806310
     91          6           0       -0.546031    0.349362   -4.285234
     92          1           0       -1.001446    0.219043   -3.296022
     93          1           0       -0.625412   -0.612175   -4.802683
     94          6           0       -1.436141    1.334230   -5.020376
     95          8           0       -2.388872    1.016873   -5.696826
     96          8           0       -1.060494    2.605905   -4.793401
     97          7           0        4.069757   -0.610262   -4.008204
     98          1           0        3.672528   -1.423242   -4.457849
     99          6           0        5.503296   -0.413970   -4.104783
    100          1           0        5.701217    0.630805   -3.838176
    101          6           0        6.032213   -0.595052   -5.524124
    102          6           0        6.241451   -1.335775   -3.119390
    103          1           0        7.307518   -1.356757   -3.361650
    104          1           0        5.858738   -2.354384   -3.266672
    105          8           0        7.211195   -0.633540   -5.791310
    106          6           0        6.044042   -0.871303   -1.664457
    107          1           0        5.102219   -0.323745   -1.549087
    108          1           0        6.834232   -0.157838   -1.410265
    109          6           0        6.052524   -2.015173   -0.654103
    110          1           0        6.088211   -1.625923    0.371232
    111          1           0        6.927624   -2.660177   -0.803683
    112          7           0        4.815934   -2.785128   -0.837630
    113          1           0        4.009883   -2.289433   -1.236997
    114          7           0        5.376132   -4.589725    0.543881
    115          1           0        5.285965   -5.597060    0.596593
    116          1           0        6.335836   -4.269713    0.545607
    117          7           0        3.304399   -4.485152   -0.527575
    118          1           0        2.932275   -5.136100    0.151846
    119          1           0        2.624145   -3.840611   -0.943161
    120          6           0        4.510078   -3.942932   -0.273661
    121          8           0        5.051591   -0.687302   -6.447151
    122          1           0       -1.744543    3.204816   -5.150065
    123          1           0        5.495342   -0.770373   -7.313705
 ---------------------------------------------------------------------

 SCF Done:  E(RB3LYP) =  -2974.20992360     A.U. after    1 cycles

 Alpha  occ. eigenvalues --  -19.27493 -19.25826 -19.23804 -19.21401 -19.19992
 Alpha  occ. eigenvalues --  -19.19341 -19.18002 -19.17395 -19.15605 -19.14416
 Alpha  occ. eigenvalues --  -19.03903 -14.60383 -14.50166 -14.49292 -14.48948
 Alpha  occ. eigenvalues --  -14.47459 -14.45957 -14.44674 -14.42820 -14.42463
 Alpha  occ. eigenvalues --  -14.38976 -10.45333 -10.42645 -10.40487 -10.39812
 Alpha  occ. eigenvalues --  -10.39576 -10.36605 -10.35219 -10.34371 -10.34114
 Alpha  occ. eigenvalues --  -10.33859 -10.33158 -10.32631 -10.32225 -10.31944
 Alpha  occ. eigenvalues --  -10.31639 -10.31496 -10.31241 -10.30709 -10.30447
 Alpha  occ. eigenvalues --  -10.29981 -10.29947 -10.29676 -10.28718 -10.28436
 Alpha  occ. eigenvalues --  -10.28011 -10.27137 -10.26952 -10.25755 -10.24896
 Alpha  occ. eigenvalues --  -10.24320 -10.23700 -10.22948 -10.22910 -10.22690
 Alpha  occ. eigenvalues --  -10.22269 -10.19897 -10.17647 -10.17533 -10.16915
 Alpha  occ. eigenvalues --  -10.14779 -10.14665  -1.18494  -1.18298  -1.15212
 Alpha  occ. eigenvalues --   -1.14200  -1.14053  -1.11514  -1.11018  -1.10508
 Alpha  occ. eigenvalues --   -1.09606  -1.09211  -1.07197  -1.05388  -1.03946
 Alpha  occ. eigenvalues --   -1.02666  -1.02108  -1.02038  -1.01291  -0.99473
 Alpha  occ. eigenvalues --   -0.98693  -0.97579  -0.96272  -0.93479  -0.93236
 Alpha  occ. eigenvalues --   -0.90093  -0.88545  -0.87516  -0.87003  -0.85685
 Alpha  occ. eigenvalues --   -0.84868  -0.84706  -0.83839  -0.82457  -0.81953
 Alpha  occ. eigenvalues --   -0.79422  -0.79345  -0.78992  -0.77925  -0.75875
 Alpha  occ. eigenvalues --   -0.74616  -0.74381  -0.73716  -0.73695  -0.72911
 Alpha  occ. eigenvalues --   -0.72396  -0.72103  -0.71930  -0.71907  -0.71491
 Alpha  occ. eigenvalues --   -0.70527  -0.69951  -0.69833  -0.69517  -0.68221
 Alpha  occ. eigenvalues --   -0.67827  -0.67415  -0.66803  -0.66305  -0.66025
 Alpha  occ. eigenvalues --   -0.64514  -0.64188  -0.63803  -0.63129  -0.62913
 Alpha  occ. eigenvalues --   -0.62692  -0.62292  -0.61845  -0.61722  -0.61481
 Alpha  occ. eigenvalues --   -0.60307  -0.59629  -0.59047  -0.58541  -0.58245
 Alpha  occ. eigenvalues --   -0.57941  -0.57544  -0.57321  -0.56762  -0.56581
 Alpha  occ. eigenvalues --   -0.56333  -0.55825  -0.55799  -0.55600  -0.55508
 Alpha  occ. eigenvalues --   -0.54840  -0.54264  -0.54203  -0.53509  -0.53440
 Alpha  occ. eigenvalues --   -0.53199  -0.53170  -0.52478  -0.52299  -0.52210
 Alpha  occ. eigenvalues --   -0.51611  -0.51283  -0.50958  -0.50856  -0.50288
 Alpha  occ. eigenvalues --   -0.50129  -0.49877  -0.49467  -0.48924  -0.48537
 Alpha  occ. eigenvalues --   -0.48223  -0.47950  -0.47809  -0.47265  -0.47194
 Alpha  occ. eigenvalues --   -0.46992  -0.46855  -0.46700  -0.46411  -0.46065
 Alpha  occ. eigenvalues --   -0.45877  -0.45819  -0.45529  -0.45227  -0.45042
 Alpha  occ. eigenvalues --   -0.44908  -0.44683  -0.44519  -0.44402  -0.44205
 Alpha  occ. eigenvalues --   -0.44134  -0.44034  -0.43539  -0.43445  -0.43277
 Alpha  occ. eigenvalues --   -0.43107  -0.42893  -0.42564  -0.42001  -0.41421
 Alpha  occ. eigenvalues --   -0.41111  -0.40800  -0.40628  -0.40149  -0.39988
 Alpha  occ. eigenvalues --   -0.39835  -0.39602  -0.39375  -0.39349  -0.39254
 Alpha  occ. eigenvalues --   -0.39213  -0.38936  -0.38907  -0.38203  -0.37504
 Alpha  occ. eigenvalues --   -0.37236  -0.36427  -0.36294  -0.36214  -0.35982
 Alpha  occ. eigenvalues --   -0.34702  -0.33381  -0.33268  -0.32957  -0.32649
 Alpha  occ. eigenvalues --   -0.32287  -0.31670  -0.31616  -0.31437  -0.31124
 Alpha  occ. eigenvalues --   -0.29747  -0.28287  -0.28067  -0.27826  -0.23132
 Alpha  occ. eigenvalues --   -0.17821  -0.15131
 Alpha virt. eigenvalues --   -0.13253  -0.11812  -0.10814  -0.10634  -0.10097
 Alpha virt. eigenvalues --   -0.09781  -0.06860  -0.06088  -0.05794  -0.05529
 Alpha virt. eigenvalues --   -0.04629  -0.03387  -0.03357  -0.02419  -0.02285

 Mulliken charges:
               1
     1  N   -0.731785
     2  H    0.422062
     3  H    0.407403
     4  H    0.424995
     5  C   -0.131216
     6  H    0.209898
     7  C    0.666387
     8  C   -0.375731
     9  H    0.212516
    10  H    0.191744
    11  O   -0.561331
    12  C    0.131241
    13  C   -0.181574
    14  H    0.142897
    15  C   -0.216991
    16  H    0.147142
    17  C   -0.123031
    18  H    0.168695
    19  C   -0.121125
    20  H    0.167081
    21  C   -0.123610
    22  H    0.169671
    23  N   -0.585453
    24  H    0.353044
    25  C   -0.087758
    26  H    0.200565
    27  C    0.619495
    28  C   -0.476255
    29  H    0.263981
    30  H    0.154244
    31  H    0.144806
    32  O   -0.495401
    33  N   -0.611631
    34  H    0.351170
    35  C   -0.073004
    36  H    0.207913
    37  C    0.622684
    38  C   -0.451805
    39  H    0.185626
    40  H    0.153661
    41  H    0.129597
    42  O   -0.538437
    43  N   -0.602763
    44  H    0.386350
    45  C   -0.073200
    46  H    0.160872
    47  C    0.654313
    48  C   -0.366142
    49  H    0.109445
    50  H    0.147950
    51  O   -0.516404
    52  C    0.129948
    53  C   -0.194619
    54  H    0.068631
    55  C   -0.184139
    56  H    0.060969
    57  C   -0.255253
    58  H    0.081369
    59  C   -0.231075
    60  H    0.101107
    61  O   -0.662909
    62  C    0.428214
    63  N   -0.600977
    64  H    0.329788
    65  C   -0.072259
    66  H    0.208654
    67  C    0.626042
    68  C   -0.260136
    69  H    0.104613
    70  H    0.117756
    71  O   -0.610588
    72  C   -0.075948
    73  H    0.158406
    74  C   -0.445293
    75  H    0.128377
    76  H    0.165321
    77  H    0.126588
    78  C   -0.467686
    79  H    0.123925
    80  H    0.189008
    81  H    0.159250
    82  N   -0.547901
    83  H    0.381239
    84  C   -0.076300
    85  H    0.163562
    86  C    0.624440
    87  C   -0.293629
    88  H    0.202893
    89  H    0.165720
    90  O   -0.525327
    91  C   -0.364212
    92  H    0.206863
    93  H    0.154510
    94  C    0.604747
    95  O   -0.465469
    96  O   -0.561658
    97  N   -0.597108
    98  H    0.343790
    99  C   -0.071354
   100  H    0.230342
   101  C    0.588802
   102  C   -0.270432
   103  H    0.192649
   104  H    0.144053
   105  O   -0.448050
   106  C   -0.324705
   107  H    0.187140
   108  H    0.183844
   109  C   -0.158188
   110  H    0.187585
   111  H    0.168250
   112  N   -0.612717
   113  H    0.411783
   114  N   -0.743264
   115  H    0.373088
   116  H    0.374285
   117  N   -0.756085
   118  H    0.357259
   119  H    0.417752
   120  C    0.748115
   121  O   -0.563774
   122  H    0.430319
   123  H    0.427262
 Sum of Mulliken charges =   1.00000

 Dipole moment (field-independent basis, Debye):
    X=            -14.4414    Y=             -1.9807    Z=             23.2703  Tot=             27.4588
 Quadrupole moment (field-independent basis, Debye-Ang):
   XX=             80.5327   YY=           -230.0949   ZZ=           -269.7052
   XY=           -236.9486   XZ=           -240.3035   YZ=            132.8951

 Normal termination of Gaussian 16 at Sun Aug  7 18:55:37 2022.
