 Gaussian 16, Revision C.01,
 Gaussian 16:  ES64L-G16RevC.01  3-Jul-2019

 ----------------------------------------------------------------------
 # B3LYP/6-31G* empiricaldispersion=gd3bj guess=read geom=check nosymm
 integral(ultrafinegrid)
 ----------------------------------------------------------------------

 ------------------------------------------------------
 Candidate Structure: Conf:586 Charge calc in gas phase
 ------------------------------------------------------
 Structure from the checkpoint file:  "conf-586.chk"
 Charge =  1 Multiplicity = 1

                          Input orientation:
 ---------------------------------------------------------------------
 Center     Atomic      Atomic             Coordinates (Angstroms)
 Number     Number       Type             X           Y           Z
 ---------------------------------------------------------------------
      1          7           0       -9.654145    2.182248    5.776508
      2          1           0      -10.144588    2.171841    4.879978
      3          1           0       -9.933211    3.000326    6.319107
      4          1           0       -9.940539    1.346417    6.297482
      5          6           0       -8.188700    2.117645    5.587609
      6          1           0       -7.885050    2.844580    4.823679
      7          6           0       -7.863143    0.723736    5.051444
      8          6           0       -7.446205    2.438669    6.896704
      9          1           0       -7.503508    3.519745    7.061233
     10          1           0       -6.390361    2.185572    6.773716
     11          8           0       -8.653292   -0.208939    5.165330
     12          6           0       -8.039343    1.729445    8.087817
     13          6           0       -8.882975    2.412128    8.966136
     14          1           0       -9.066055    3.471135    8.810726
     15          6           0       -7.813324    0.368741    8.299872
     16          1           0       -7.168853   -0.173852    7.616618
     17          6           0       -9.492375    1.753171   10.031480
     18          1           0      -10.145157    2.301193   10.702112
     19          6           0       -8.421188   -0.296363    9.362387
     20          1           0       -8.232579   -1.354099    9.506908
     21          6           0       -9.262981    0.394718   10.231464
     22          1           0       -9.734916   -0.123255   11.059205
     23          7           0       -6.668170    0.624248    4.453677
     24          1           0       -6.000841    1.383559    4.446931
     25          6           0       -6.157147   -0.611457    3.916073
     26          1           0       -6.289962   -1.419615    4.644745
     27          6           0       -4.660623   -0.376142    3.706331
     28          6           0       -6.890371   -1.019457    2.637455
     29          1           0       -6.454721   -1.928061    2.216214
     30          1           0       -6.832536   -0.220048    1.904731
     31          1           0       -7.939904   -1.195562    2.866788
     32          8           0       -4.149147    0.727222    3.878934
     33          7           0       -3.949580   -1.447397    3.294247
     34          1           0       -4.415080   -2.339596    3.254856
     35          6           0       -2.487361   -1.474074    3.279695
     36          1           0       -2.120036   -0.898485    4.137493
     37          6           0       -2.043591   -0.760432    1.998458
     38          6           0       -1.993548   -2.906985    3.363186
     39          1           0       -0.904358   -2.936761    3.300149
     40          1           0       -2.395289   -3.496794    2.536886
     41          1           0       -2.300651   -3.353287    4.312395
     42          8           0       -1.716876   -1.378742    0.980440
     43          7           0       -2.023486    0.591809    2.064826
     44          1           0       -2.451361    1.048875    2.863779
     45          6           0       -1.800015    1.389925    0.866729
     46          1           0       -2.255464    0.814740    0.052185
     47          6           0       -0.302235    1.558026    0.563014
     48          6           0       -2.451780    2.780990    0.972775
     49          1           0       -1.923331    3.356589    1.733004
     50          1           0       -2.255863    3.267735    0.013762
     51          8           0        0.245579    2.658662    0.485388
     52          6           0       -3.905381    2.794726    1.314478
     53          6           0       -4.904235    2.250026    0.491757
     54          1           0       -4.621158    1.842462   -0.475209
     55          6           0       -4.288535    3.325263    2.554250
     56          1           0       -3.522536    3.735211    3.210207
     57          6           0       -6.229712    2.217101    0.886763
     58          1           0       -7.002531    1.786814    0.261562
     59          6           0       -5.590257    3.318581    2.986063
     60          1           0       -5.877060    3.709850    3.957930
     61          8           0       -7.809578    2.617460    2.609030
     62          6           0       -6.637212    2.718601    2.189618
     63          7           0        0.386446    0.403234    0.403253
     64          1           0       -0.132046   -0.468216    0.350291
     65          6           0        1.792305    0.441652    0.041973
     66          1           0        2.206361    1.310173    0.562236
     67          6           0        1.936709    0.659472   -1.465298
     68          6           0        2.521253   -0.812362    0.499730
     69          1           0        2.327948   -0.927398    1.570264
     70          1           0        2.089544   -1.678324   -0.010107
     71          8           0        2.103492   -0.253955   -2.265026
     72          6           0        4.039617   -0.795906    0.261646
     73          1           0        4.206177   -0.769918   -0.821037
     74          6           0        4.712002    0.433246    0.871832
     75          1           0        4.517264    0.490428    1.948437
     76          1           0        5.795470    0.379857    0.730041
     77          1           0        4.369162    1.358521    0.403367
     78          6           0        4.645495   -2.083888    0.817165
     79          1           0        4.503932   -2.134528    1.900499
     80          1           0        4.175728   -2.963936    0.369681
     81          1           0        5.718644   -2.134090    0.613386
     82          7           0        1.831935    1.953887   -1.867090
     83          1           0        1.699704    2.667178   -1.162163
     84          6           0        2.337646    2.324223   -3.175468
     85          1           0        1.774155    1.754720   -3.921418
     86          6           0        3.814294    1.921248   -3.278644
     87          6           0        2.141515    3.825575   -3.393982
     88          1           0        1.107067    4.054430   -3.131745
     89          1           0        2.774107    4.372258   -2.693966
     90          8           0        4.601173    2.045678   -2.353465
     91          6           0        2.425539    4.292038   -4.818674
     92          1           0        1.783212    3.780623   -5.541301
     93          1           0        3.461913    4.093552   -5.103199
     94          6           0        2.221723    5.778192   -4.968589
     95          8           0        2.253119    6.586004   -4.073853
     96          8           0        2.026830    6.128760   -6.261767
     97          7           0        4.182480    1.379836   -4.478025
     98          1           0        3.600153    1.574746   -5.276433
     99          6           0        5.586101    1.141007   -4.734707
    100          1           0        6.014765    0.725727   -3.817672
    101          6           0        6.304757    2.451112   -5.013924
    102          6           0        5.774730    0.151160   -5.886768
    103          1           0        6.838200    0.112402   -6.137652
    104          1           0        5.251259    0.527068   -6.768020
    105          8           0        5.770303    3.492002   -5.307941
    106          6           0        5.281842   -1.239931   -5.503470
    107          1           0        4.225180   -1.201227   -5.227052
    108          1           0        5.820892   -1.572226   -4.608946
    109          6           0        5.483687   -2.296409   -6.583478
    110          1           0        5.182164   -3.272652   -6.197410
    111          1           0        6.540232   -2.379811   -6.846100
    112          7           0        4.675434   -2.052755   -7.794746
    113          1           0        3.683596   -1.952490   -7.618751
    114          7           0        6.387078   -1.137309   -9.125706
    115          1           0        6.701271   -0.978828  -10.071899
    116          1           0        7.088247   -1.530917   -8.515721
    117          7           0        4.172631   -1.155913   -9.866628
    118          1           0        4.509281   -0.907367  -10.785871
    119          1           0        3.316132   -1.694987   -9.875158
    120          6           0        5.096211   -1.476632   -8.925840
    121          8           0        7.641981    2.304327   -4.917162
    122          1           0        1.933455    7.093860   -6.265782
    123          1           0        8.033712    3.166317   -5.120297
 ---------------------------------------------------------------------

 SCF Done:  E(RB3LYP) =  -2974.21934034     A.U. after   46 cycles

 Alpha  occ. eigenvalues --  -19.27945 -19.24101 -19.22504 -19.18366 -19.18172
 Alpha  occ. eigenvalues --  -19.18137 -19.17607 -19.15695 -19.15524 -19.14577
 Alpha  occ. eigenvalues --  -19.06269 -14.55443 -14.54148 -14.54113 -14.53713
 Alpha  occ. eigenvalues --  -14.43582 -14.41932 -14.40622 -14.39303 -14.38887
 Alpha  occ. eigenvalues --  -14.38222 -10.49821 -10.40234 -10.37378 -10.36632
 Alpha  occ. eigenvalues --  -10.35191 -10.34896 -10.34323 -10.32566 -10.32446
 Alpha  occ. eigenvalues --  -10.32306 -10.31969 -10.31202 -10.30873 -10.30619
 Alpha  occ. eigenvalues --  -10.28705 -10.28638 -10.28610 -10.28016 -10.26893
 Alpha  occ. eigenvalues --  -10.26146 -10.25769 -10.25755 -10.25645 -10.25576
 Alpha  occ. eigenvalues --  -10.25489 -10.25339 -10.25313 -10.24589 -10.23504
 Alpha  occ. eigenvalues --  -10.21814 -10.21543 -10.21453 -10.21060 -10.20672
 Alpha  occ. eigenvalues --  -10.19968 -10.19436 -10.17490 -10.17229 -10.16557
 Alpha  occ. eigenvalues --  -10.15533 -10.15367  -1.19181  -1.18669  -1.15242
 Alpha  occ. eigenvalues --   -1.11979  -1.10795  -1.10070  -1.10007  -1.08802
 Alpha  occ. eigenvalues --   -1.08175  -1.07742  -1.07445  -1.07075  -1.06222
 Alpha  occ. eigenvalues --   -1.06166  -1.00769  -0.98773  -0.98275  -0.96649
 Alpha  occ. eigenvalues --   -0.96423  -0.95814  -0.94978  -0.93077  -0.92663
 Alpha  occ. eigenvalues --   -0.87801  -0.87561  -0.85701  -0.84635  -0.84198
 Alpha  occ. eigenvalues --   -0.83004  -0.81952  -0.81876  -0.81351  -0.79999
 Alpha  occ. eigenvalues --   -0.79642  -0.79143  -0.78293  -0.76751  -0.76048
 Alpha  occ. eigenvalues --   -0.74360  -0.73805  -0.72677  -0.72193  -0.71690
 Alpha  occ. eigenvalues --   -0.71489  -0.70963  -0.70948  -0.69756  -0.69214
 Alpha  occ. eigenvalues --   -0.69030  -0.68267  -0.67452  -0.67376  -0.67019
 Alpha  occ. eigenvalues --   -0.66332  -0.66121  -0.65870  -0.65345  -0.64339
 Alpha  occ. eigenvalues --   -0.63905  -0.62919  -0.62075  -0.62016  -0.61468
 Alpha  occ. eigenvalues --   -0.61384  -0.60636  -0.60561  -0.59803  -0.59120
 Alpha  occ. eigenvalues --   -0.58800  -0.58546  -0.58305  -0.57738  -0.56969
 Alpha  occ. eigenvalues --   -0.56758  -0.56157  -0.56083  -0.55445  -0.55221
 Alpha  occ. eigenvalues --   -0.54729  -0.54637  -0.53656  -0.53634  -0.53236
 Alpha  occ. eigenvalues --   -0.52876  -0.52797  -0.52668  -0.52411  -0.52080
 Alpha  occ. eigenvalues --   -0.51992  -0.51775  -0.51187  -0.51007  -0.50701
 Alpha  occ. eigenvalues --   -0.50397  -0.49276  -0.49018  -0.48946  -0.48778
 Alpha  occ. eigenvalues --   -0.48129  -0.48095  -0.47565  -0.47436  -0.46892
 Alpha  occ. eigenvalues --   -0.46731  -0.46499  -0.46415  -0.46179  -0.45807
 Alpha  occ. eigenvalues --   -0.45763  -0.45659  -0.45611  -0.45279  -0.44911
 Alpha  occ. eigenvalues --   -0.44758  -0.44651  -0.44483  -0.44295  -0.44157
 Alpha  occ. eigenvalues --   -0.43687  -0.43543  -0.43118  -0.42979  -0.42953
 Alpha  occ. eigenvalues --   -0.42805  -0.42554  -0.42492  -0.41769  -0.41556
 Alpha  occ. eigenvalues --   -0.41173  -0.40976  -0.40913  -0.40895  -0.40775
 Alpha  occ. eigenvalues --   -0.40582  -0.40523  -0.40329  -0.40090  -0.40017
 Alpha  occ. eigenvalues --   -0.39730  -0.39440  -0.39132  -0.37646  -0.36900
 Alpha  occ. eigenvalues --   -0.36418  -0.36150  -0.36116  -0.35907  -0.35552
 Alpha  occ. eigenvalues --   -0.35535  -0.33750  -0.33695  -0.32965  -0.32814
 Alpha  occ. eigenvalues --   -0.32674  -0.32144  -0.32044  -0.31800  -0.31740
 Alpha  occ. eigenvalues --   -0.31572  -0.31035  -0.30741  -0.30450  -0.29526
 Alpha  occ. eigenvalues --   -0.28906  -0.28382  -0.27301  -0.26753  -0.23486
 Alpha  occ. eigenvalues --   -0.20354  -0.15951
 Alpha virt. eigenvalues --   -0.15282  -0.10445  -0.07655  -0.07614  -0.07305
 Alpha virt. eigenvalues --   -0.07244  -0.05634  -0.04813  -0.04765  -0.04763
 Alpha virt. eigenvalues --   -0.04141  -0.03182  -0.03122  -0.02538  -0.01874

 Mulliken charges:
               1
     1  N   -0.720997
     2  H    0.436209
     3  H    0.404071
     4  H    0.415768
     5  C   -0.139399
     6  H    0.259800
     7  C    0.670204
     8  C   -0.387890
     9  H    0.172933
    10  H    0.207131
    11  O   -0.565229
    12  C    0.128000
    13  C   -0.218003
    14  H    0.127914
    15  C   -0.165310
    16  H    0.150109
    17  C   -0.123686
    18  H    0.149613
    19  C   -0.127268
    20  H    0.151786
    21  C   -0.127228
    22  H    0.151922
    23  N   -0.607704
    24  H    0.389975
    25  C   -0.044077
    26  H    0.162183
    27  C    0.633839
    28  C   -0.458442
    29  H    0.132240
    30  H    0.214025
    31  H    0.184381
    32  O   -0.525263
    33  N   -0.604487
    34  H    0.336841
    35  C   -0.049574
    36  H    0.171206
    37  C    0.638116
    38  C   -0.475832
    39  H    0.176334
    40  H    0.175445
    41  H    0.151890
    42  O   -0.559953
    43  N   -0.597624
    44  H    0.378066
    45  C   -0.062790
    46  H    0.176491
    47  C    0.638879
    48  C   -0.384640
    49  H    0.155646
    50  H    0.150169
    51  O   -0.550657
    52  C    0.151354
    53  C   -0.183714
    54  H    0.089207
    55  C   -0.159748
    56  H    0.088730
    57  C   -0.228629
    58  H    0.091488
    59  C   -0.259161
    60  H    0.053797
    61  O   -0.700648
    62  C    0.440809
    63  N   -0.633077
    64  H    0.374989
    65  C   -0.058151
    66  H    0.173899
    67  C    0.650380
    68  C   -0.265217
    69  H    0.133260
    70  H    0.145346
    71  O   -0.563825
    72  C   -0.080031
    73  H    0.137388
    74  C   -0.452060
    75  H    0.135536
    76  H    0.136471
    77  H    0.167625
    78  C   -0.442157
    79  H    0.140893
    80  H    0.135802
    81  H    0.133705
    82  N   -0.617915
    83  H    0.369435
    84  C   -0.020111
    85  H    0.146528
    86  C    0.641606
    87  C   -0.300133
    88  H    0.180308
    89  H    0.192930
    90  O   -0.518609
    91  C   -0.399761
    92  H    0.155561
    93  H    0.216056
    94  C    0.589441
    95  O   -0.448836
    96  O   -0.574761
    97  N   -0.592020
    98  H    0.324029
    99  C   -0.041753
   100  H    0.216176
   101  C    0.593378
   102  C   -0.300888
   103  H    0.163042
   104  H    0.139420
   105  O   -0.447471
   106  C   -0.277023
   107  H    0.193327
   108  H    0.190111
   109  C   -0.185714
   110  H    0.213593
   111  H    0.167826
   112  N   -0.570271
   113  H    0.370599
   114  N   -0.722182
   115  H    0.377973
   116  H    0.384770
   117  N   -0.728916
   118  H    0.375802
   119  H    0.380919
   120  C    0.741388
   121  O   -0.565600
   122  H    0.413241
   123  H    0.425114
 Sum of Mulliken charges =   1.00000

 Dipole moment (field-independent basis, Debye):
    X=              8.4746    Y=             -9.3206    Z=            -22.7974  Tot=             26.0464
 Quadrupole moment (field-independent basis, Debye-Ang):
   XX=            -63.8141   YY=           -353.0789   ZZ=            139.2006
   XY=            -56.4153   XZ=           -363.3751   YZ=             70.6974

 Normal termination of Gaussian 16 at Sun Aug  7 19:22:08 2022.
