 Gaussian 16, Revision C.01,
 Gaussian 16:  ES64L-G16RevC.01  3-Jul-2019

 -------------------------------------------------------------------
 # B3LYP/6-31G* guess=read geom=check nosymm integral(ultrafinegrid)
 -------------------------------------------------------------------

 ------------------------------------------------------
 Candidate Structure: Conf:474 Charge calc in gas phase
 ------------------------------------------------------
 Structure from the checkpoint file:  "conf-474.chk"
 Charge =  1 Multiplicity = 1

                          Input orientation:
 ---------------------------------------------------------------------
 Center     Atomic      Atomic             Coordinates (Angstroms)
 Number     Number       Type             X           Y           Z
 ---------------------------------------------------------------------
      1          7           0       -2.581816    3.369143    2.364459
      2          1           0       -1.850830    4.133676    2.060146
      3          1           0       -3.304950    3.229696    1.636342
      4          1           0       -3.025249    3.684820    3.236008
      5          6           0       -1.942049    2.029786    2.561134
      6          1           0       -0.889778    2.205740    2.799454
      7          6           0       -2.137585    1.295847    1.212079
      8          6           0       -2.633271    1.247905    3.706615
      9          1           0       -2.085671    0.307355    3.834267
     10          1           0       -3.645947    0.985604    3.378930
     11          8           0       -3.173917    1.529557    0.583838
     12          6           0       -2.680274    2.026685    5.004873
     13          6           0       -3.857642    2.681386    5.398462
     14          1           0       -4.762354    2.568466    4.803301
     15          6           0       -1.541041    2.142076    5.815980
     16          1           0       -0.624049    1.627732    5.535703
     17          6           0       -3.895379    3.436743    6.574767
     18          1           0       -4.818490    3.925727    6.872168
     19          6           0       -1.579076    2.891469    6.990621
     20          1           0       -0.693171    2.960131    7.615365
     21          6           0       -2.755795    3.543736    7.370919
     22          1           0       -2.784893    4.122027    8.289640
     23          7           0       -1.146386    0.460252    0.877542
     24          1           0       -0.333615    0.370967    1.487612
     25          6           0       -1.038931   -0.453967   -0.272057
     26          1           0       -1.581968   -1.376295   -0.022358
     27          6           0        0.473302   -0.809890   -0.291251
     28          6           0       -1.584917    0.105855   -1.609168
     29          1           0       -2.326768    0.874797   -1.385476
     30          1           0       -0.770779    0.598384   -2.155313
     31          8           0        1.152392   -0.639295    0.737902
     32          6           0       -2.260019   -0.956997   -2.510603
     33          1           0       -1.605937   -1.837993   -2.587859
     34          6           0       -3.606624   -1.414779   -1.928099
     35          1           0       -4.308214   -0.574274   -1.864724
     36          1           0       -4.058097   -2.184486   -2.563182
     37          1           0       -3.511538   -1.840115   -0.921493
     38          6           0       -2.438848   -0.396211   -3.928621
     39          1           0       -3.038368    0.523275   -3.913937
     40          1           0       -1.471436   -0.176118   -4.391141
     41          1           0       -2.956612   -1.119074   -4.568206
     42          7           0        0.984489   -1.270779   -1.438627
     43          1           0        0.450017   -1.300687   -2.311656
     44          6           0        2.418658   -1.532363   -1.628564
     45          1           0        2.800184   -1.981316   -0.705717
     46          6           0        3.176225   -0.203003   -1.892984
     47          6           0        2.629557   -2.502839   -2.798996
     48          1           0        3.701675   -2.672438   -2.924338
     49          1           0        2.169154   -3.465401   -2.546019
     50          8           0        3.645963    0.063862   -2.992943
     51          6           0        1.982429   -2.024268   -4.099080
     52          7           0        2.710373   -2.178428   -5.228569
     53          1           0        2.315990   -1.806711   -6.083669
     54          1           0        3.716105   -2.257148   -5.183062
     55          8           0        0.817618   -1.611502   -4.118577
     56          7           0        3.227210    0.626029   -0.816025
     57          1           0        2.803545    0.297874    0.048646
     58          6           0        3.750721    1.976853   -0.878256
     59          1           0        3.882187    2.203622   -1.944346
     60          6           0        5.145232    2.127910   -0.253790
     61          6           0        2.775593    2.983805   -0.236444
     62          1           0        3.284377    3.947693   -0.160317
     63          1           0        2.575659    2.660735    0.796031
     64          8           0        5.611930    3.192455    0.086338
     65          6           0        1.450826    3.111747   -1.000255
     66          1           0        1.610570    3.643166   -1.949351
     67          1           0        1.081997    2.116605   -1.273822
     68          6           0        0.338923    3.795721   -0.198661
     69          1           0       -0.612629    3.733726   -0.747326
     70          1           0        0.202893    3.273769    0.752746
     71          7           0        0.668728    5.179624    0.117025
     72          1           0        1.013790    5.739369   -0.652643
     73          7           0        0.541465    7.184160    1.230630
     74          1           0        0.223453    7.726975    2.021419
     75          1           0        1.497378    7.378977    0.960261
     76          7           0       -0.766604    5.344045    1.958561
     77          1           0       -0.945943    5.967651    2.744593
     78          6           0        0.109262    5.876817    1.147678
     79          8           0        5.808084    0.959860   -0.154594
     80          1           0        6.690933    1.175754    0.203297
 ---------------------------------------------------------------------

 SCF Done:  E(RB3LYP) =  -1866.62771817     A.U. after    3 cycles

 Alpha  occ. eigenvalues --  -19.27588 -19.23753 -19.22741 -19.21782 -19.20325
 Alpha  occ. eigenvalues --  -19.20253 -14.53418 -14.47646 -14.46645 -14.46400
 Alpha  occ. eigenvalues --  -14.45821 -14.44286 -14.43766 -14.41992 -10.41228
 Alpha  occ. eigenvalues --  -10.41104 -10.39982 -10.39532 -10.37911 -10.37367
 Alpha  occ. eigenvalues --  -10.37250 -10.34116 -10.33224 -10.32821 -10.32557
 Alpha  occ. eigenvalues --  -10.31694 -10.30520 -10.29360 -10.29148 -10.28887
 Alpha  occ. eigenvalues --  -10.28880 -10.28841 -10.28837 -10.28608 -10.28309
 Alpha  occ. eigenvalues --  -10.27133 -10.26630 -10.24254 -10.23564  -1.18523
 Alpha  occ. eigenvalues --   -1.15909  -1.14432  -1.12259  -1.11665  -1.09984
 Alpha  occ. eigenvalues --   -1.09438  -1.08734  -1.04055  -1.02584  -1.01233
 Alpha  occ. eigenvalues --   -1.00561  -0.98705  -0.96472  -0.95882  -0.90967
 Alpha  occ. eigenvalues --   -0.89659  -0.89154  -0.87261  -0.85263  -0.84409
 Alpha  occ. eigenvalues --   -0.84235  -0.82658  -0.78133  -0.77214  -0.76266
 Alpha  occ. eigenvalues --   -0.75147  -0.74532  -0.72127  -0.70960  -0.70769
 Alpha  occ. eigenvalues --   -0.70514  -0.69495  -0.68616  -0.68388  -0.67626
 Alpha  occ. eigenvalues --   -0.67157  -0.66968  -0.66842  -0.65171  -0.64472
 Alpha  occ. eigenvalues --   -0.63530  -0.63114  -0.62350  -0.61620  -0.60800
 Alpha  occ. eigenvalues --   -0.60079  -0.59366  -0.58392  -0.58113  -0.57693
 Alpha  occ. eigenvalues --   -0.57576  -0.56910  -0.56583  -0.55747  -0.55627
 Alpha  occ. eigenvalues --   -0.55536  -0.54997  -0.54420  -0.53954  -0.53703
 Alpha  occ. eigenvalues --   -0.52808  -0.52388  -0.51908  -0.51745  -0.51502
 Alpha  occ. eigenvalues --   -0.51300  -0.50977  -0.50208  -0.50105  -0.49970
 Alpha  occ. eigenvalues --   -0.49494  -0.49396  -0.48566  -0.48380  -0.48078
 Alpha  occ. eigenvalues --   -0.47558  -0.47067  -0.46636  -0.46469  -0.46166
 Alpha  occ. eigenvalues --   -0.45732  -0.45206  -0.45079  -0.44504  -0.44184
 Alpha  occ. eigenvalues --   -0.44106  -0.43988  -0.43781  -0.43535  -0.40961
 Alpha  occ. eigenvalues --   -0.40460  -0.40121  -0.40019  -0.39547  -0.37837
 Alpha  occ. eigenvalues --   -0.37489  -0.37277  -0.37028  -0.36904  -0.36201
 Alpha  occ. eigenvalues --   -0.35279  -0.35166  -0.35035  -0.34658  -0.34119
 Alpha  occ. eigenvalues --   -0.33062  -0.32967
 Alpha virt. eigenvalues --   -0.11361  -0.10544  -0.09586  -0.08625  -0.07176
 Alpha virt. eigenvalues --   -0.06717  -0.06134  -0.05666  -0.04904  -0.04056
 Alpha virt. eigenvalues --   -0.03022  -0.01183  -0.00603  -0.00077   0.00305

 Mulliken charges:
               1
     1  N   -0.791252
     2  H    0.448149
     3  H    0.400024
     4  H    0.380474
     5  C   -0.090540
     6  H    0.188143
     7  C    0.648669
     8  C   -0.377203
     9  H    0.191160
    10  H    0.190674
    11  O   -0.534779
    12  C    0.142602
    13  C   -0.218559
    14  H    0.146513
    15  C   -0.178326
    16  H    0.139278
    17  C   -0.123256
    18  H    0.160123
    19  C   -0.125375
    20  H    0.158504
    21  C   -0.126538
    22  H    0.160841
    23  N   -0.648256
    24  H    0.365722
    25  C   -0.014230
    26  H    0.200621
    27  C    0.616989
    28  C   -0.328657
    29  H    0.196966
    30  H    0.153153
    31  O   -0.577173
    32  C   -0.091140
    33  H    0.138706
    34  C   -0.450811
    35  H    0.157128
    36  H    0.160501
    37  H    0.136675
    38  C   -0.454101
    39  H    0.139580
    40  H    0.169656
    41  H    0.155581
    42  N   -0.640442
    43  H    0.424172
    44  C   -0.086508
    45  H    0.194751
    46  C    0.634334
    47  C   -0.376337
    48  H    0.175839
    49  H    0.195682
    50  O   -0.516160
    51  C    0.635975
    52  N   -0.726273
    53  H    0.355444
    54  H    0.356985
    55  O   -0.540713
    56  N   -0.618875
    57  H    0.370728
    58  C   -0.064789
    59  H    0.215189
    60  C    0.596668
    61  C   -0.267068
    62  H    0.182830
    63  H    0.137242
    64  O   -0.458600
    65  C   -0.305394
    66  H    0.155927
    67  H    0.164215
    68  C   -0.126881
    69  H    0.163595
    70  H    0.152875
    71  N   -0.599284
    72  H    0.342583
    73  N   -0.762269
    74  H    0.347998
    75  H    0.351946
    76  N   -0.760701
    77  H    0.299307
    78  C    0.712041
    79  O   -0.554356
    80  H    0.422092
 Sum of Mulliken charges =   1.00000

 Dipole moment (field-independent basis, Debye):
    X=             -0.7116    Y=             12.8202    Z=              6.9424  Tot=             14.5966
 Quadrupole moment (field-independent basis, Debye-Ang):
   XX=           -190.8072   YY=           -129.1321   ZZ=           -157.1482
   XY=            -24.1146   XZ=            -36.5248   YZ=             53.4632

 Normal termination of Gaussian 16 at Sun Jun 19 01:55:55 2022.
