 Gaussian 16, Revision C.01,
 Gaussian 16:  ES64L-G16RevC.01  3-Jul-2019

 -------------------------------------------------------------------
 # B3LYP/6-31G* guess=read geom=check nosymm integral(ultrafinegrid)
 -------------------------------------------------------------------

 ------------------------------------------------------
 Candidate Structure: Conf:879 Charge calc in gas phase
 ------------------------------------------------------
 Structure from the checkpoint file:  "conf-879.chk"
 Charge =  1 Multiplicity = 1

                          Input orientation:
 ---------------------------------------------------------------------
 Center     Atomic      Atomic             Coordinates (Angstroms)
 Number     Number       Type             X           Y           Z
 ---------------------------------------------------------------------
      1          7           0       -4.236510    4.133202    2.542353
      2          1           0       -4.573347    3.158756    2.273736
      3          1           0       -4.402764    4.269411    3.551042
      4          1           0       -4.728182    4.850716    2.005420
      5          6           0       -2.756212    4.041551    2.242141
      6          1           0       -2.513131    4.763782    1.459576
      7          6           0       -2.613047    2.601772    1.671481
      8          6           0       -1.919419    4.338075    3.514320
      9          1           0       -1.900912    5.424152    3.661312
     10          1           0       -0.892017    4.034336    3.295615
     11          8           0       -3.616167    1.870322    1.698061
     12          6           0       -2.449816    3.660312    4.761020
     13          6           0       -3.246078    4.383145    5.665439
     14          1           0       -3.405857    5.449958    5.512371
     15          6           0       -2.202706    2.302435    5.014125
     16          1           0       -1.576747    1.730390    4.334148
     17          6           0       -3.788393    3.761523    6.794869
     18          1           0       -4.390730    4.337326    7.491275
     19          6           0       -2.740169    1.684780    6.142351
     20          1           0       -2.533611    0.635395    6.330568
     21          6           0       -3.537514    2.410730    7.032028
     22          1           0       -3.951763    1.925950    7.910840
     23          7           0       -1.421143    2.269315    1.185770
     24          1           0       -0.693140    2.986031    1.094460
     25          6           0       -1.181196    0.993319    0.494681
     26          1           0       -1.625627    0.193803    1.093668
     27          6           0        0.339031    0.828717    0.396246
     28          6           0       -1.833255    1.023232   -0.917483
     29          1           0       -2.882768    1.303916   -0.765831
     30          1           0       -1.359491    1.838078   -1.480421
     31          8           0        1.082885    1.823572    0.383701
     32          6           0       -1.788258   -0.274196   -1.751237
     33          1           0       -0.739665   -0.540410   -1.932239
     34          6           0       -2.487024   -1.450690   -1.050567
     35          1           0       -3.525161   -1.199096   -0.797838
     36          1           0       -2.509672   -2.326748   -1.707563
     37          1           0       -1.986004   -1.763044   -0.126224
     38          6           0       -2.434875   -0.004185   -3.119918
     39          1           0       -3.494522    0.262156   -3.013901
     40          1           0       -1.931563    0.814593   -3.646810
     41          1           0       -2.377504   -0.893673   -3.756065
     42          7           0        0.797024   -0.418961    0.242217
     43          1           0        0.227214   -1.238740    0.460711
     44          6           0        2.193102   -0.694520   -0.090282
     45          1           0        2.840517   -0.313743    0.709770
     46          6           0        2.539068   -0.019596   -1.448747
     47          6           0        2.396134   -2.214715   -0.273704
     48          1           0        1.904541   -2.496556   -1.212390
     49          1           0        3.466992   -2.405291   -0.395909
     50          8           0        1.942766   -0.354812   -2.466999
     51          6           0        1.789160   -3.076172    0.830516
     52          7           0        2.604676   -4.001719    1.388894
     53          1           0        2.205472   -4.653821    2.051678
     54          1           0        3.539991   -4.175892    1.052777
     55          8           0        0.612043   -2.947653    1.177335
     56          7           0        3.536300    0.895948   -1.413755
     57          1           0        3.900870    1.189688   -0.517749
     58          6           0        4.021815    1.607730   -2.594289
     59          1           0        3.731904    1.017403   -3.466656
     60          6           0        5.544851    1.695237   -2.597474
     61          6           0        3.433685    3.039275   -2.713224
     62          1           0        4.046900    3.605437   -3.423292
     63          1           0        3.538735    3.530694   -1.738084
     64          8           0        6.211836    1.855587   -3.589762
     65          6           0        1.959594    3.061204   -3.164966
     66          1           0        1.912400    3.021574   -4.259156
     67          1           0        1.443847    2.159957   -2.812784
     68          6           0        1.188708    4.295362   -2.680685
     69          1           0        1.695285    5.224143   -2.965840
     70          1           0        0.195098    4.326905   -3.149537
     71          7           0        1.079351    4.252270   -1.227287
     72          1           0        1.111845    3.334595   -0.793617
     73          7           0        0.409238    4.919770    0.894601
     74          1           0        0.361662    5.774280    1.444263
     75          1           0        1.240844    4.404502    1.182940
     76          7           0        0.005044    6.303153   -1.058592
     77          1           0       -0.320822    6.976900   -0.363989
     78          6           0        0.473673    5.243309   -0.508971
     79          8           0        6.071445    1.644430   -1.346123
     80          1           0        7.035915    1.758628   -1.448114
 ---------------------------------------------------------------------

 SCF Done:  E(RB3LYP) =  -1866.59867762     A.U. after    1 cycles

 Alpha  occ. eigenvalues --  -19.27725 -19.26229 -19.22837 -19.21480 -19.21293
 Alpha  occ. eigenvalues --  -19.20182 -14.58503 -14.48657 -14.45915 -14.45482
 Alpha  occ. eigenvalues --  -14.45066 -14.44365 -14.41181 -14.36011 -10.42792
 Alpha  occ. eigenvalues --  -10.39999 -10.39765 -10.39625 -10.39108 -10.37676
 Alpha  occ. eigenvalues --  -10.35694 -10.34292 -10.34027 -10.33721 -10.31998
 Alpha  occ. eigenvalues --  -10.31865 -10.30836 -10.30352 -10.30145 -10.29972
 Alpha  occ. eigenvalues --  -10.29799 -10.29772 -10.28106 -10.27791 -10.26580
 Alpha  occ. eigenvalues --  -10.26425 -10.25618 -10.24531 -10.24058  -1.18531
 Alpha  occ. eigenvalues --   -1.18331  -1.14666  -1.13014  -1.12668  -1.12094
 Alpha  occ. eigenvalues --   -1.09327  -1.05418  -1.05157  -1.02738  -1.01372
 Alpha  occ. eigenvalues --   -1.00145  -0.97372  -0.96463  -0.92743  -0.92016
 Alpha  occ. eigenvalues --   -0.90139  -0.88291  -0.86760  -0.86560  -0.85662
 Alpha  occ. eigenvalues --   -0.83742  -0.82148  -0.79280  -0.77619  -0.75476
 Alpha  occ. eigenvalues --   -0.74870  -0.74556  -0.73381  -0.72336  -0.71655
 Alpha  occ. eigenvalues --   -0.71102  -0.70019  -0.69253  -0.68937  -0.68557
 Alpha  occ. eigenvalues --   -0.67669  -0.66907  -0.65957  -0.65347  -0.64034
 Alpha  occ. eigenvalues --   -0.63326  -0.63062  -0.61443  -0.60847  -0.60535
 Alpha  occ. eigenvalues --   -0.60300  -0.59786  -0.59284  -0.58705  -0.57886
 Alpha  occ. eigenvalues --   -0.57560  -0.56859  -0.56421  -0.55803  -0.55436
 Alpha  occ. eigenvalues --   -0.54997  -0.54356  -0.53788  -0.53583  -0.53219
 Alpha  occ. eigenvalues --   -0.53127  -0.52686  -0.52529  -0.52107  -0.51662
 Alpha  occ. eigenvalues --   -0.51585  -0.51002  -0.50808  -0.50348  -0.49982
 Alpha  occ. eigenvalues --   -0.49866  -0.49311  -0.48870  -0.48144  -0.47731
 Alpha  occ. eigenvalues --   -0.47237  -0.46927  -0.46849  -0.46278  -0.45946
 Alpha  occ. eigenvalues --   -0.45431  -0.45345  -0.45221  -0.45034  -0.44893
 Alpha  occ. eigenvalues --   -0.44095  -0.42155  -0.41944  -0.41761  -0.41266
 Alpha  occ. eigenvalues --   -0.40801  -0.40304  -0.39769  -0.39276  -0.37928
 Alpha  occ. eigenvalues --   -0.37213  -0.36719  -0.36473  -0.36359  -0.36104
 Alpha  occ. eigenvalues --   -0.36054  -0.35395  -0.35253  -0.33757  -0.33226
 Alpha  occ. eigenvalues --   -0.32688  -0.29554
 Alpha virt. eigenvalues --   -0.12748  -0.12115  -0.11282  -0.08980  -0.08804
 Alpha virt. eigenvalues --   -0.07988  -0.06767  -0.05778  -0.04278  -0.03207
 Alpha virt. eigenvalues --   -0.02299  -0.01795  -0.01426  -0.00999  -0.00639

 Mulliken charges:
               1
     1  N   -0.764959
     2  H    0.433622
     3  H    0.403334
     4  H    0.410109
     5  C   -0.098691
     6  H    0.227288
     7  C    0.649560
     8  C   -0.379803
     9  H    0.178926
    10  H    0.204467
    11  O   -0.546316
    12  C    0.120863
    13  C   -0.226751
    14  H    0.145341
    15  C   -0.169005
    16  H    0.149419
    17  C   -0.119102
    18  H    0.165556
    19  C   -0.122216
    20  H    0.165491
    21  C   -0.122867
    22  H    0.167824
    23  N   -0.633698
    24  H    0.412829
    25  C   -0.069402
    26  H    0.192120
    27  C    0.634740
    28  C   -0.268348
    29  H    0.161110
    30  H    0.151601
    31  O   -0.580429
    32  C   -0.101961
    33  H    0.167194
    34  C   -0.463349
    35  H    0.149143
    36  H    0.163210
    37  H    0.144892
    38  C   -0.444798
    39  H    0.141676
    40  H    0.149494
    41  H    0.160288
    42  N   -0.619601
    43  H    0.400573
    44  C   -0.026066
    45  H    0.161321
    46  C    0.640222
    47  C   -0.412323
    48  H    0.228516
    49  H    0.166829
    50  O   -0.525857
    51  C    0.621038
    52  N   -0.738160
    53  H    0.361387
    54  H    0.355479
    55  O   -0.528689
    56  N   -0.590640
    57  H    0.348854
    58  C   -0.065898
    59  H    0.215678
    60  C    0.586696
    61  C   -0.270223
    62  H    0.178810
    63  H    0.153873
    64  O   -0.440681
    65  C   -0.321265
    66  H    0.164259
    67  H    0.166076
    68  C   -0.096398
    69  H    0.172462
    70  H    0.153970
    71  N   -0.645744
    72  H    0.377961
    73  N   -0.813537
    74  H    0.320317
    75  H    0.339417
    76  N   -0.632154
    77  H    0.261030
    78  C    0.573452
    79  O   -0.583239
    80  H    0.423853
 Sum of Mulliken charges =   1.00000

 Dipole moment (field-independent basis, Debye):
    X=             -5.4435    Y=             10.8976    Z=             14.8337  Tot=             19.1945
 Quadrupole moment (field-independent basis, Debye-Ang):
   XX=           -144.0027   YY=           -143.5586   ZZ=           -183.4546
   XY=            -68.5229   XZ=            -29.9578   YZ=             51.6401

 Normal termination of Gaussian 16 at Sun Jun 19 01:55:17 2022.
