 Gaussian 16, Revision C.01,
 Gaussian 16:  ES64L-G16RevC.01  3-Jul-2019

 -------------------------------------------------------------------
 # B3LYP/6-31G* guess=read geom=check nosymm integral(ultrafinegrid)
 -------------------------------------------------------------------

 ------------------------------------------------------
 Candidate Structure: Conf:304 Charge calc in gas phase
 ------------------------------------------------------
 Structure from the checkpoint file:  "conf-304.chk"
 Charge =  1 Multiplicity = 1

                          Input orientation:
 ---------------------------------------------------------------------
 Center     Atomic      Atomic             Coordinates (Angstroms)
 Number     Number       Type             X           Y           Z
 ---------------------------------------------------------------------
      1          7           0       -2.468425   -0.346185    3.393476
      2          1           0       -2.428018   -0.341801    4.416569
      3          1           0       -2.756908   -1.259337    3.014167
      4          1           0       -1.514040   -0.130744    2.989026
      5          6           0       -3.455544    0.670577    2.871591
      6          1           0       -4.414717    0.432519    3.344723
      7          6           0       -3.549234    0.307969    1.369555
      8          6           0       -3.013870    2.093717    3.251802
      9          1           0       -3.810746    2.778919    2.938470
     10          1           0       -2.109498    2.345372    2.688921
     11          8           0       -3.413742   -0.877573    1.063169
     12          6           0       -2.770677    2.241120    4.743157
     13          6           0       -1.467949    2.161741    5.258376
     14          1           0       -0.628462    2.041490    4.576467
     15          6           0       -3.841370    2.421761    5.630903
     16          1           0       -4.856121    2.502793    5.246051
     17          6           0       -1.242172    2.261883    6.633528
     18          1           0       -0.227613    2.211107    7.018365
     19          6           0       -3.615379    2.522313    7.003758
     20          1           0       -4.452961    2.672976    7.678576
     21          6           0       -2.315006    2.440979    7.507869
     22          1           0       -2.139362    2.525471    8.576199
     23          7           0       -3.779530    1.309986    0.499326
     24          1           0       -3.683496    2.263810    0.829340
     25          6           0       -3.501607    1.145231   -0.942674
     26          1           0       -3.576547    0.077092   -1.148479
     27          6           0       -2.050450    1.643711   -1.094565
     28          6           0       -4.474360    1.951144   -1.809092
     29          1           0       -4.311966    3.016700   -1.603398
     30          1           0       -4.181541    1.796754   -2.857175
     31          8           0       -1.778365    2.830938   -0.917486
     32          6           0       -5.964602    1.596622   -1.638360
     33          1           0       -6.230423    1.759094   -0.583335
     34          6           0       -6.821704    2.545049   -2.490209
     35          1           0       -6.604813    2.418815   -3.558440
     36          1           0       -7.888950    2.346415   -2.343405
     37          1           0       -6.636663    3.594837   -2.234034
     38          6           0       -6.265693    0.129546   -1.981879
     39          1           0       -5.973829   -0.100088   -3.014937
     40          1           0       -5.743803   -0.571463   -1.320215
     41          1           0       -7.338034   -0.075171   -1.890485
     42          7           0       -1.116190    0.689695   -1.311125
     43          1           0       -1.355084   -0.282517   -1.485079
     44          6           0        0.302597    0.986055   -1.325925
     45          1           0        0.484675    1.849625   -1.972912
     46          6           0        1.013354   -0.246204   -1.912787
     47          6           0        0.843442    1.376284    0.083222
     48          1           0        1.922524    1.543073    0.009920
     49          1           0        0.364390    2.312491    0.372270
     50          8           0        0.406458   -1.305696   -2.070650
     51          6           0        0.527343    0.359410    1.168077
     52          7           0        1.236546   -0.779745    1.178162
     53          1           0        1.001681   -1.489087    1.859956
     54          1           0        1.897653   -1.041259    0.449949
     55          8           0       -0.356241    0.598448    2.017714
     56          7           0        2.337177   -0.092718   -2.163425
     57          1           0        2.689166    0.876174   -2.248201
     58          6           0        3.050945   -1.179329   -2.833918
     59          1           0        2.625467   -1.342573   -3.831178
     60          6           0        2.898598   -2.516213   -2.115667
     61          6           0        4.567971   -0.907087   -2.972216
     62          1           0        4.966091   -1.721203   -3.585275
     63          1           0        5.039421   -1.002817   -1.985448
     64          8           0        2.894627   -3.585852   -2.667825
     65          6           0        4.919194    0.465124   -3.588755
     66          1           0        5.707539    0.342832   -4.339985
     67          1           0        4.053714    0.878695   -4.118082
     68          6           0        5.390051    1.474203   -2.518004
     69          1           0        4.820259    1.341932   -1.594374
     70          1           0        6.441362    1.293317   -2.269079
     71          7           0        5.255661    2.873214   -2.893514
     72          1           0        5.888169    3.210689   -3.608221
     73          7           0        4.023777    4.763432   -3.379587
     74          1           0        3.169197    5.290682   -3.259616
     75          1           0        4.854599    5.313689   -3.196645
     76          7           0        2.975533    2.834487   -2.432224
     77          1           0        2.175634    3.463915   -2.369128
     78          6           0        4.017202    3.472470   -2.873209
     79          8           0        2.916443   -2.405887   -0.748769
     80          1           0        2.897568   -3.327214   -0.425008
 ---------------------------------------------------------------------

 SCF Done:  E(RB3LYP) =  -1866.62414856     A.U. after    1 cycles

 Alpha  occ. eigenvalues --  -19.28601 -19.24265 -19.24051 -19.22046 -19.21531
 Alpha  occ. eigenvalues --  -19.20640 -14.56041 -14.47920 -14.46884 -14.45284
 Alpha  occ. eigenvalues --  -14.44447 -14.43799 -14.43760 -14.38419 -10.41448
 Alpha  occ. eigenvalues --  -10.41142 -10.40347 -10.38244 -10.38161 -10.37885
 Alpha  occ. eigenvalues --  -10.37830 -10.33711 -10.32780 -10.32529 -10.31788
 Alpha  occ. eigenvalues --  -10.30379 -10.30291 -10.29662 -10.29001 -10.28991
 Alpha  occ. eigenvalues --  -10.28644 -10.28573 -10.28378 -10.28056 -10.27024
 Alpha  occ. eigenvalues --  -10.26761 -10.26456 -10.24211 -10.23932  -1.18907
 Alpha  occ. eigenvalues --   -1.16545  -1.15057  -1.13529  -1.12482  -1.10713
 Alpha  occ. eigenvalues --   -1.09899  -1.06979  -1.04223  -1.02068  -1.01692
 Alpha  occ. eigenvalues --   -1.01363  -0.97819  -0.95815  -0.93375  -0.91289
 Alpha  occ. eigenvalues --   -0.89417  -0.88746  -0.87253  -0.85084  -0.84173
 Alpha  occ. eigenvalues --   -0.82927  -0.82788  -0.78615  -0.77651  -0.75903
 Alpha  occ. eigenvalues --   -0.75073  -0.73308  -0.72179  -0.71009  -0.70892
 Alpha  occ. eigenvalues --   -0.70421  -0.70015  -0.69210  -0.68961  -0.67923
 Alpha  occ. eigenvalues --   -0.67649  -0.67427  -0.66681  -0.65096  -0.64168
 Alpha  occ. eigenvalues --   -0.63405  -0.62929  -0.61837  -0.61236  -0.61093
 Alpha  occ. eigenvalues --   -0.60489  -0.58855  -0.58760  -0.57614  -0.57201
 Alpha  occ. eigenvalues --   -0.56804  -0.56555  -0.55678  -0.55537  -0.55370
 Alpha  occ. eigenvalues --   -0.55076  -0.54374  -0.54339  -0.53786  -0.53623
 Alpha  occ. eigenvalues --   -0.53067  -0.52477  -0.51988  -0.51812  -0.51551
 Alpha  occ. eigenvalues --   -0.51414  -0.50834  -0.50730  -0.50466  -0.50145
 Alpha  occ. eigenvalues --   -0.49920  -0.48930  -0.48702  -0.48339  -0.47866
 Alpha  occ. eigenvalues --   -0.47588  -0.47279  -0.46630  -0.46544  -0.45846
 Alpha  occ. eigenvalues --   -0.45659  -0.44997  -0.44877  -0.44344  -0.44207
 Alpha  occ. eigenvalues --   -0.43747  -0.43560  -0.43287  -0.42148  -0.40299
 Alpha  occ. eigenvalues --   -0.40119  -0.39904  -0.39837  -0.38664  -0.38464
 Alpha  occ. eigenvalues --   -0.38168  -0.37954  -0.37333  -0.36209  -0.35493
 Alpha  occ. eigenvalues --   -0.35234  -0.34879  -0.34493  -0.34339  -0.34044
 Alpha  occ. eigenvalues --   -0.33751  -0.31887
 Alpha virt. eigenvalues --   -0.11424  -0.10403  -0.10137  -0.09836  -0.07696
 Alpha virt. eigenvalues --   -0.07147  -0.06311  -0.05189  -0.03880  -0.02743
 Alpha virt. eigenvalues --   -0.02214  -0.02077  -0.00805  -0.00362   0.00269

 Mulliken charges:
               1
     1  N   -0.757237
     2  H    0.400252
     3  H    0.410385
     4  H    0.431585
     5  C   -0.110985
     6  H    0.219343
     7  C    0.663657
     8  C   -0.401526
     9  H    0.183102
    10  H    0.212665
    11  O   -0.536427
    12  C    0.125195
    13  C   -0.214976
    14  H    0.153967
    15  C   -0.184082
    16  H    0.140439
    17  C   -0.126091
    18  H    0.155643
    19  C   -0.125784
    20  H    0.160189
    21  C   -0.124762
    22  H    0.160444
    23  N   -0.597830
    24  H    0.359525
    25  C   -0.085043
    26  H    0.192608
    27  C    0.636530
    28  C   -0.274296
    29  H    0.160633
    30  H    0.155125
    31  O   -0.545691
    32  C   -0.072523
    33  H    0.122550
    34  C   -0.445176
    35  H    0.150565
    36  H    0.154984
    37  H    0.145994
    38  C   -0.459123
    39  H    0.149287
    40  H    0.149439
    41  H    0.157993
    42  N   -0.625728
    43  H    0.368482
    44  C   -0.042032
    45  H    0.200101
    46  C    0.587506
    47  C   -0.376970
    48  H    0.195637
    49  H    0.208752
    50  O   -0.525984
    51  C    0.613848
    52  N   -0.743228
    53  H    0.341427
    54  H    0.414403
    55  O   -0.574512
    56  N   -0.683676
    57  H    0.430861
    58  C   -0.009142
    59  H    0.194192
    60  C    0.611383
    61  C   -0.311591
    62  H    0.184903
    63  H    0.160783
    64  O   -0.443704
    65  C   -0.288565
    66  H    0.158686
    67  H    0.170188
    68  C   -0.147022
    69  H    0.169031
    70  H    0.165111
    71  N   -0.592424
    72  H    0.334321
    73  N   -0.761407
    74  H    0.339359
    75  H    0.342083
    76  N   -0.729362
    77  H    0.286635
    78  C    0.667632
    79  O   -0.599832
    80  H    0.419305
 Sum of Mulliken charges =   1.00000

 Dipole moment (field-independent basis, Debye):
    X=             -0.1444    Y=              7.0505    Z=              7.7559  Tot=             10.4825
 Quadrupole moment (field-independent basis, Debye-Ang):
   XX=           -135.4146   YY=           -202.5293   ZZ=           -149.6457
   XY=             11.2838   XZ=            -52.9403   YZ=            -21.5751

 Normal termination of Gaussian 16 at Sun Jun 19 01:55:13 2022.
