 Gaussian 16, Revision C.01,
 Gaussian 16:  ES64L-G16RevC.01  3-Jul-2019

 -------------------------------------------------------------------
 # B3LYP/6-31G* guess=read geom=check nosymm integral(ultrafinegrid)
 -------------------------------------------------------------------

 ------------------------------------------------------
 Candidate Structure: Conf:123 Charge calc in gas phase
 ------------------------------------------------------
 Structure from the checkpoint file:  "conf-123.chk"
 Charge =  1 Multiplicity = 1

                          Input orientation:
 ---------------------------------------------------------------------
 Center     Atomic      Atomic             Coordinates (Angstroms)
 Number     Number       Type             X           Y           Z
 ---------------------------------------------------------------------
      1          7           0       -5.214954   -0.201336    2.803423
      2          1           0       -5.703964    0.266843    3.571856
      3          1           0       -5.572709    0.196413    1.898765
      4          1           0       -5.370554   -1.218596    2.880203
      5          6           0       -3.736925    0.117625    2.762051
      6          1           0       -3.411990    0.365189    3.774319
      7          6           0       -3.661600    1.325799    1.795671
      8          6           0       -2.958560   -1.109830    2.227697
      9          1           0       -1.897659   -0.844877    2.276157
     10          1           0       -3.221519   -1.258329    1.172915
     11          8           0       -4.605835    1.484898    1.012201
     12          6           0       -3.245101   -2.357824    3.035379
     13          6           0       -2.613172   -2.561909    4.271460
     14          1           0       -1.866260   -1.848983    4.614452
     15          6           0       -4.185917   -3.300213    2.588736
     16          1           0       -4.642345   -3.187366    1.605803
     17          6           0       -2.917572   -3.682050    5.043251
     18          1           0       -2.412942   -3.836499    5.992523
     19          6           0       -4.493762   -4.421755    3.366747
     20          1           0       -5.212388   -5.150193    3.002959
     21          6           0       -3.862369   -4.610900    4.595320
     22          1           0       -4.094384   -5.483929    5.197749
     23          7           0       -2.555311    2.071146    1.869969
     24          1           0       -1.841618    1.807059    2.550746
     25          6           0       -2.267604    3.219286    0.986481
     26          1           0       -2.906220    3.100145    0.105659
     27          6           0       -0.790058    3.168104    0.526824
     28          6           0       -2.555194    4.567879    1.672460
     29          1           0       -1.963018    4.611973    2.597223
     30          1           0       -2.149903    5.345659    1.016846
     31          8           0       -0.189149    4.183477    0.195111
     32          6           0       -4.033084    4.866631    1.988853
     33          1           0       -4.437196    4.035642    2.588639
     34          6           0       -4.121967    6.140743    2.844170
     35          1           0       -3.727618    7.006438    2.298158
     36          1           0       -5.161272    6.362622    3.110183
     37          1           0       -3.548934    6.044705    3.774154
     38          6           0       -4.890929    5.001726    0.721375
     39          1           0       -4.502579    5.794987    0.070587
     40          1           0       -4.930374    4.072061    0.144379
     41          1           0       -5.922060    5.265518    0.982039
     42          7           0       -0.202587    1.941031    0.537590
     43          1           0       -0.737176    1.151791    0.867871
     44          6           0        1.250716    1.786184    0.564764
     45          1           0        1.659654    2.733930    0.933846
     46          6           0        1.820211    1.529174   -0.856276
     47          6           0        1.639088    0.623615    1.499656
     48          1           0        1.318028   -0.316811    1.039656
     49          1           0        2.729522    0.576378    1.559271
     50          8           0        2.290758    0.439197   -1.169624
     51          6           0        0.998700    0.732213    2.875856
     52          7           0        1.828250    0.991314    3.906607
     53          1           0        1.446637    1.068148    4.840418
     54          1           0        2.826281    1.088199    3.788415
     55          8           0       -0.226270    0.596363    3.051345
     56          7           0        1.740464    2.601451   -1.672972
     57          1           0        1.302596    3.463262   -1.350109
     58          6           0        2.172358    2.550520   -3.065558
     59          1           0        3.106736    1.983370   -3.119282
     60          6           0        2.433107    3.988169   -3.493384
     61          6           0        1.114798    1.856709   -3.962320
     62          1           0        0.171887    2.412958   -3.879151
     63          1           0        0.950267    0.865286   -3.528428
     64          8           0        1.912173    4.956810   -2.984439
     65          6           0        1.500444    1.694349   -5.438162
     66          1           0        1.507424    2.665421   -5.945696
     67          1           0        2.526959    1.307541   -5.517069
     68          6           0        0.541435    0.763008   -6.189488
     69          1           0       -0.499445    1.051628   -6.025844
     70          1           0        0.718984    0.838963   -7.272758
     71          7           0        0.678228   -0.617372   -5.728673
     72          1           0        1.590274   -1.016794   -5.925125
     73          7           0        0.048015   -2.842370   -5.719679
     74          1           0       -0.714417   -3.507994   -5.695121
     75          1           0        0.666606   -2.954614   -4.923039
     76          7           0       -1.508994   -1.119277   -6.360966
     77          1           0       -2.175385   -1.892758   -6.386172
     78          6           0       -0.358223   -1.519269   -5.957940
     79          8           0        3.295561    4.063443   -4.525527
     80          1           0        3.371307    5.008439   -4.761583
 ---------------------------------------------------------------------

 SCF Done:  E(RB3LYP) =  -1866.59223890     A.U. after    2 cycles

 Alpha  occ. eigenvalues --  -19.26698 -19.26689 -19.24028 -19.21706 -19.21015
 Alpha  occ. eigenvalues --  -19.19228 -14.59921 -14.49844 -14.47981 -14.46140
 Alpha  occ. eigenvalues --  -14.43017 -14.39601 -14.39133 -14.32915 -10.43641
 Alpha  occ. eigenvalues --  -10.41534 -10.40722 -10.39011 -10.39005 -10.36478
 Alpha  occ. eigenvalues --  -10.34313 -10.33675 -10.33647 -10.32552 -10.32352
 Alpha  occ. eigenvalues --  -10.31186 -10.30704 -10.30617 -10.30538 -10.30418
 Alpha  occ. eigenvalues --  -10.30416 -10.30154 -10.27350 -10.27322 -10.25901
 Alpha  occ. eigenvalues --  -10.24890 -10.24722 -10.24577 -10.24057  -1.19108
 Alpha  occ. eigenvalues --   -1.17635  -1.15250  -1.14048  -1.13718  -1.11027
 Alpha  occ. eigenvalues --   -1.08669  -1.06525  -1.02636  -1.02547  -1.02037
 Alpha  occ. eigenvalues --   -0.99686  -0.97782  -0.93339  -0.93317  -0.90135
 Alpha  occ. eigenvalues --   -0.88721  -0.88571  -0.86980  -0.86058  -0.85802
 Alpha  occ. eigenvalues --   -0.84214  -0.80729  -0.79486  -0.77845  -0.75654
 Alpha  occ. eigenvalues --   -0.74495  -0.74058  -0.73530  -0.72944  -0.72215
 Alpha  occ. eigenvalues --   -0.71814  -0.70920  -0.70265  -0.69524  -0.68260
 Alpha  occ. eigenvalues --   -0.66879  -0.66099  -0.65466  -0.64235  -0.63810
 Alpha  occ. eigenvalues --   -0.63184  -0.63135  -0.62749  -0.61782  -0.60155
 Alpha  occ. eigenvalues --   -0.59421  -0.58515  -0.58274  -0.57756  -0.57441
 Alpha  occ. eigenvalues --   -0.56966  -0.56659  -0.56390  -0.55711  -0.55174
 Alpha  occ. eigenvalues --   -0.55015  -0.54094  -0.53946  -0.53503  -0.53290
 Alpha  occ. eigenvalues --   -0.53010  -0.52374  -0.52069  -0.51472  -0.51279
 Alpha  occ. eigenvalues --   -0.50864  -0.50793  -0.50501  -0.50489  -0.50229
 Alpha  occ. eigenvalues --   -0.49029  -0.48476  -0.48101  -0.47621  -0.47289
 Alpha  occ. eigenvalues --   -0.46982  -0.46896  -0.46187  -0.45910  -0.45744
 Alpha  occ. eigenvalues --   -0.45612  -0.45358  -0.44961  -0.44390  -0.43792
 Alpha  occ. eigenvalues --   -0.42949  -0.41596  -0.40882  -0.40741  -0.40638
 Alpha  occ. eigenvalues --   -0.40374  -0.40151  -0.39460  -0.39382  -0.39278
 Alpha  occ. eigenvalues --   -0.38351  -0.38249  -0.36896  -0.36580  -0.36350
 Alpha  occ. eigenvalues --   -0.35120  -0.34673  -0.32525  -0.32314  -0.30999
 Alpha  occ. eigenvalues --   -0.29999  -0.27252
 Alpha virt. eigenvalues --   -0.13393  -0.12631  -0.11204  -0.10218  -0.09955
 Alpha virt. eigenvalues --   -0.08179  -0.06366  -0.05266  -0.04378  -0.03483
 Alpha virt. eigenvalues --   -0.02223  -0.01840  -0.01597  -0.00628   0.00444

 Mulliken charges:
               1
     1  N   -0.747623
     2  H    0.415593
     3  H    0.426319
     4  H    0.405024
     5  C   -0.114543
     6  H    0.213698
     7  C    0.648432
     8  C   -0.403129
     9  H    0.232462
    10  H    0.187065
    11  O   -0.532152
    12  C    0.136153
    13  C   -0.183283
    14  H    0.153245
    15  C   -0.232642
    16  H    0.149588
    17  C   -0.122989
    18  H    0.164659
    19  C   -0.120967
    20  H    0.166904
    21  C   -0.123718
    22  H    0.168572
    23  N   -0.639197
    24  H    0.385971
    25  C   -0.081863
    26  H    0.219607
    27  C    0.608541
    28  C   -0.254107
    29  H    0.133824
    30  H    0.194200
    31  O   -0.506988
    32  C   -0.071179
    33  H    0.096824
    34  C   -0.445714
    35  H    0.159484
    36  H    0.152609
    37  H    0.140781
    38  C   -0.461019
    39  H    0.156653
    40  H    0.158055
    41  H    0.152528
    42  N   -0.600406
    43  H    0.342580
    44  C   -0.067098
    45  H    0.193401
    46  C    0.647302
    47  C   -0.393334
    48  H    0.206975
    49  H    0.183304
    50  O   -0.530612
    51  C    0.619425
    52  N   -0.722804
    53  H    0.357843
    54  H    0.366679
    55  O   -0.572892
    56  N   -0.635561
    57  H    0.382328
    58  C   -0.026486
    59  H    0.191579
    60  C    0.578199
    61  C   -0.266692
    62  H    0.144998
    63  H    0.183227
    64  O   -0.459111
    65  C   -0.278163
    66  H    0.148968
    67  H    0.137960
    68  C   -0.124560
    69  H    0.186951
    70  H    0.147733
    71  N   -0.603196
    72  H    0.318313
    73  N   -0.755949
    74  H    0.319986
    75  H    0.321760
    76  N   -0.646122
    77  H    0.264992
    78  C    0.589500
    79  O   -0.558264
    80  H    0.421571
 Sum of Mulliken charges =   1.00000

 Dipole moment (field-independent basis, Debye):
    X=            -11.8523    Y=             -2.1943    Z=             16.0054  Tot=             20.0366
 Quadrupole moment (field-independent basis, Debye-Ang):
   XX=           -130.0308   YY=           -196.1076   ZZ=           -159.3569
   XY=             26.1836   XZ=            -58.5153   YZ=             -7.8421

 Normal termination of Gaussian 16 at Sun Jun 19 01:55:28 2022.
