 Gaussian 16, Revision C.01,
 Gaussian 16:  ES64L-G16RevC.01  3-Jul-2019

 -------------------------------------------------------------------
 # B3LYP/6-31G* guess=read geom=check nosymm integral(ultrafinegrid)
 -------------------------------------------------------------------

 ------------------------------------------------------
 Candidate Structure: Conf:669 Charge calc in gas phase
 ------------------------------------------------------
 Structure from the checkpoint file:  "conf-669.chk"
 Charge =  1 Multiplicity = 1

                          Input orientation:
 ---------------------------------------------------------------------
 Center     Atomic      Atomic             Coordinates (Angstroms)
 Number     Number       Type             X           Y           Z
 ---------------------------------------------------------------------
      1          7           0       -6.030312    3.183616    3.020687
      2          1           0       -6.652069    3.846835    2.549925
      3          1           0       -6.165279    2.232573    2.581070
      4          1           0       -6.241290    3.194010    4.030435
      5          6           0       -4.567243    3.462940    2.765202
      6          1           0       -4.468711    4.507994    2.464416
      7          6           0       -4.215809    2.479280    1.618255
      8          6           0       -3.747120    3.181070    4.049709
      9          1           0       -2.715168    3.484402    3.843421
     10          1           0       -3.729910    2.098288    4.222352
     11          8           0       -5.007247    1.548457    1.403783
     12          6           0       -4.302721    3.902594    5.260101
     13          6           0       -5.108146    3.214940    6.182835
     14          1           0       -5.254302    2.140459    6.079454
     15          6           0       -4.072032    5.273392    5.450744
     16          1           0       -3.436238    5.818286    4.755885
     17          6           0       -5.673865    3.885707    7.272483
     18          1           0       -6.282081    3.338003    7.986151
     19          6           0       -4.632020    5.939575    6.539712
     20          1           0       -4.434261    6.997639    6.683753
     21          6           0       -5.437911    5.248296    7.449744
     22          1           0       -5.869070    5.769640    8.298931
     23          7           0       -3.069238    2.694054    0.986475
     24          1           0       -2.438715    3.464130    1.220473
     25          6           0       -2.510263    1.823952   -0.053988
     26          1           0       -2.664305    0.784160    0.248900
     27          6           0       -1.005866    2.175748   -0.054101
     28          6           0       -3.199673    2.090369   -1.416508
     29          1           0       -4.280992    2.040077   -1.235606
     30          1           0       -2.970084    3.122435   -1.712002
     31          8           0       -0.628324    3.249405    0.431878
     32          6           0       -2.855188    1.128365   -2.573277
     33          1           0       -1.773645    1.171629   -2.758565
     34          6           0       -3.235352   -0.328543   -2.263444
     35          1           0       -4.305654   -0.415585   -2.037733
     36          1           0       -3.021530   -0.971559   -3.123305
     37          1           0       -2.683179   -0.744860   -1.411911
     38          6           0       -3.559911    1.608185   -3.852329
     39          1           0       -4.650719    1.582040   -3.735135
     40          1           0       -3.273566    2.634720   -4.109009
     41          1           0       -3.302610    0.965834   -4.701116
     42          7           0       -0.182334    1.273621   -0.605576
     43          1           0       -0.509118    0.386489   -0.984030
     44          6           0        1.253632    1.466227   -0.745715
     45          1           0        1.442727    2.495679   -1.064760
     46          6           0        1.699971    0.466404   -1.834372
     47          6           0        1.979708    1.199866    0.605028
     48          1           0        1.640946    1.960623    1.317296
     49          1           0        1.693329    0.213253    0.975471
     50          8           0        1.014948   -0.531041   -2.062917
     51          6           0        3.501135    1.198685    0.459776
     52          7           0        4.058122    2.427278    0.197545
     53          1           0        5.066785    2.457633    0.108639
     54          1           0        3.592859    3.281739    0.472009
     55          8           0        4.150000    0.166361    0.462227
     56          7           0        2.851154    0.771143   -2.470272
     57          1           0        3.408786    1.554710   -2.138063
     58          6           0        3.606787   -0.215893   -3.240924
     59          1           0        3.298603   -1.213875   -2.915400
     60          6           0        5.078093   -0.003754   -2.894854
     61          6           0        3.418199   -0.093426   -4.769895
     62          1           0        4.088439   -0.811658   -5.253399
     63          1           0        3.742227    0.907913   -5.084729
     64          8           0        5.527680    1.025039   -2.433760
     65          6           0        1.980830   -0.345414   -5.239858
     66          1           0        1.614830   -1.296880   -4.831571
     67          1           0        1.311383    0.428476   -4.846687
     68          6           0        1.858732   -0.363758   -6.770119
     69          1           0        0.787063   -0.395192   -7.039568
     70          1           0        2.267207    0.571648   -7.170903
     71          7           0        2.611430   -1.467125   -7.334474
     72          1           0        2.484277   -2.372316   -6.898814
     73          7           0        2.935019   -0.421590   -9.416310
     74          1           0        3.091530   -0.581131  -10.404007
     75          1           0        2.115595    0.157698   -9.271937
     76          7           0        3.416552   -2.752179   -9.053623
     77          1           0        3.678666   -2.735687  -10.039598
     78          6           0        2.984037   -1.606779   -8.665129
     79          8           0        5.822536   -1.072324   -3.214055
     80          1           0        6.750989   -0.853615   -3.004812
 ---------------------------------------------------------------------

 SCF Done:  E(RB3LYP) =  -1866.58201075     A.U. after    3 cycles

 Alpha  occ. eigenvalues --  -19.26840 -19.26665 -19.22574 -19.21230 -19.20359
 Alpha  occ. eigenvalues --  -19.18701 -14.59965 -14.49674 -14.46215 -14.43933
 Alpha  occ. eigenvalues --  -14.43165 -14.38888 -14.38424 -14.31308 -10.43754
 Alpha  occ. eigenvalues --  -10.41158 -10.39626 -10.39231 -10.37427 -10.36504
 Alpha  occ. eigenvalues --  -10.34847 -10.34642 -10.33299 -10.32773 -10.31703
 Alpha  occ. eigenvalues --  -10.31478 -10.31145 -10.30882 -10.30780 -10.30687
 Alpha  occ. eigenvalues --  -10.30411 -10.28707 -10.28095 -10.27872 -10.27675
 Alpha  occ. eigenvalues --  -10.25551 -10.25275 -10.25268 -10.24804  -1.19275
 Alpha  occ. eigenvalues --   -1.17752  -1.14627  -1.13931  -1.12195  -1.10563
 Alpha  occ. eigenvalues --   -1.08848  -1.06248  -1.02763  -1.01256  -1.00664
 Alpha  occ. eigenvalues --   -0.98158  -0.97747  -0.93761  -0.92972  -0.90831
 Alpha  occ. eigenvalues --   -0.88172  -0.87755  -0.87434  -0.86374  -0.85571
 Alpha  occ. eigenvalues --   -0.84169  -0.80689  -0.79959  -0.77506  -0.76422
 Alpha  occ. eigenvalues --   -0.75877  -0.74214  -0.73642  -0.73172  -0.72191
 Alpha  occ. eigenvalues --   -0.71549  -0.70685  -0.69863  -0.68381  -0.66828
 Alpha  occ. eigenvalues --   -0.66212  -0.65938  -0.65333  -0.65067  -0.64175
 Alpha  occ. eigenvalues --   -0.63373  -0.63255  -0.61567  -0.61117  -0.59579
 Alpha  occ. eigenvalues --   -0.58455  -0.57915  -0.57525  -0.57361  -0.57161
 Alpha  occ. eigenvalues --   -0.56795  -0.56335  -0.55856  -0.55284  -0.55007
 Alpha  occ. eigenvalues --   -0.54742  -0.54359  -0.53968  -0.53719  -0.53560
 Alpha  occ. eigenvalues --   -0.53272  -0.52692  -0.52361  -0.51703  -0.51482
 Alpha  occ. eigenvalues --   -0.50916  -0.50826  -0.50504  -0.50215  -0.49077
 Alpha  occ. eigenvalues --   -0.48476  -0.48405  -0.47937  -0.47600  -0.47145
 Alpha  occ. eigenvalues --   -0.46854  -0.46539  -0.46432  -0.46223  -0.45956
 Alpha  occ. eigenvalues --   -0.45945  -0.45320  -0.44927  -0.44633  -0.43336
 Alpha  occ. eigenvalues --   -0.42757  -0.42731  -0.41752  -0.41442  -0.41161
 Alpha  occ. eigenvalues --   -0.40832  -0.40607  -0.39836  -0.38729  -0.38621
 Alpha  occ. eigenvalues --   -0.37182  -0.36984  -0.36715  -0.36069  -0.35359
 Alpha  occ. eigenvalues --   -0.34431  -0.34006  -0.33464  -0.32044  -0.31209
 Alpha  occ. eigenvalues --   -0.28596  -0.25208
 Alpha virt. eigenvalues --   -0.13562  -0.12860  -0.11417  -0.10313  -0.08580
 Alpha virt. eigenvalues --   -0.06503  -0.05752  -0.05304  -0.05167  -0.03115
 Alpha virt. eigenvalues --   -0.02421  -0.01618  -0.01071  -0.00822  -0.00133

 Mulliken charges:
               1
     1  N   -0.750918
     2  H    0.415698
     3  H    0.427754
     4  H    0.405252
     5  C   -0.111662
     6  H    0.212542
     7  C    0.659217
     8  C   -0.383967
     9  H    0.207310
    10  H    0.195021
    11  O   -0.542990
    12  C    0.137375
    13  C   -0.229699
    14  H    0.152267
    15  C   -0.181504
    16  H    0.146062
    17  C   -0.119865
    18  H    0.169314
    19  C   -0.122147
    20  H    0.168948
    21  C   -0.123410
    22  H    0.171142
    23  N   -0.613781
    24  H    0.370124
    25  C   -0.066503
    26  H    0.191895
    27  C    0.629514
    28  C   -0.257552
    29  H    0.160213
    30  H    0.150673
    31  O   -0.556241
    32  C   -0.095085
    33  H    0.140624
    34  C   -0.454787
    35  H    0.153572
    36  H    0.170004
    37  H    0.139768
    38  C   -0.447127
    39  H    0.147988
    40  H    0.148364
    41  H    0.160706
    42  N   -0.621852
    43  H    0.375516
    44  C   -0.049349
    45  H    0.181810
    46  C    0.621885
    47  C   -0.348699
    48  H    0.174306
    49  H    0.188831
    50  O   -0.541293
    51  C    0.554160
    52  N   -0.740658
    53  H    0.364528
    54  H    0.340241
    55  O   -0.476550
    56  N   -0.609058
    57  H    0.368502
    58  C   -0.045890
    59  H    0.204014
    60  C    0.600263
    61  C   -0.263437
    62  H    0.193168
    63  H    0.146174
    64  O   -0.478385
    65  C   -0.283051
    66  H    0.157085
    67  H    0.140531
    68  C   -0.127767
    69  H    0.131475
    70  H    0.154426
    71  N   -0.581344
    72  H    0.329629
    73  N   -0.751020
    74  H    0.325270
    75  H    0.321272
    76  N   -0.650672
    77  H    0.267249
    78  C    0.580405
    79  O   -0.551952
    80  H    0.426126
 Sum of Mulliken charges =   1.00000

 Dipole moment (field-independent basis, Debye):
    X=            -19.8745    Y=             19.8551    Z=             10.1954  Tot=             29.8859
 Quadrupole moment (field-independent basis, Debye-Ang):
   XX=            -94.7008   YY=           -169.9369   ZZ=           -121.0036
   XY=            -64.4385   XZ=            -78.4904   YZ=             40.5942

 Normal termination of Gaussian 16 at Sun Jun 19 01:55:38 2022.
