 Gaussian 16, Revision C.01,
 Gaussian 16:  ES64L-G16RevC.01  3-Jul-2019

 -------------------------------------------------------------------
 # B3LYP/6-31G* guess=read geom=check nosymm integral(ultrafinegrid)
 -------------------------------------------------------------------

 ------------------------------------------------------
 Candidate Structure: Conf:448 Charge calc in gas phase
 ------------------------------------------------------
 Structure from the checkpoint file:  "conf-448.chk"
 Charge =  1 Multiplicity = 1

                          Input orientation:
 ---------------------------------------------------------------------
 Center     Atomic      Atomic             Coordinates (Angstroms)
 Number     Number       Type             X           Y           Z
 ---------------------------------------------------------------------
      1          7           0       -5.239204    1.898146    3.763145
      2          1           0       -5.876879    2.571285    3.326641
      3          1           0       -5.485861    0.928841    3.414441
      4          1           0       -5.336277    1.965938    4.780809
      5          6           0       -3.800583    2.041143    3.293263
      6          1           0       -3.646355    3.068707    2.958439
      7          6           0       -3.736833    1.018847    2.128496
      8          6           0       -2.856014    1.685519    4.466088
      9          1           0       -3.100518    0.672145    4.807888
     10          1           0       -3.080835    2.376277    5.291503
     11          8           0       -4.562120    0.091595    2.154873
     12          6           0       -1.386438    1.767510    4.104663
     13          6           0       -0.612111    0.603130    4.018454
     14          1           0       -1.069054   -0.363543    4.220493
     15          6           0       -0.782094    3.010300    3.865042
     16          1           0       -1.360550    3.928422    3.957816
     17          6           0        0.745619    0.673030    3.698038
     18          1           0        1.348069   -0.229594    3.629504
     19          6           0        0.571506    3.082784    3.535296
     20          1           0        1.031107    4.050026    3.354986
     21          6           0        1.333664    1.915681    3.451859
     22          1           0        2.389384    1.970296    3.203737
     23          7           0       -2.804570    1.215647    1.202398
     24          1           0       -2.109831    1.954590    1.313204
     25          6           0       -2.450166    0.244268    0.154326
     26          1           0       -2.810834   -0.736648    0.473805
     27          6           0       -0.913325    0.303045    0.106863
     28          6           0       -3.026329    0.624987   -1.226793
     29          1           0       -2.650718    1.626000   -1.472783
     30          1           0       -2.587299   -0.060546   -1.965796
     31          8           0       -0.353335    1.396829    0.212355
     32          6           0       -4.561697    0.587180   -1.358270
     33          1           0       -4.986624    1.222240   -0.566459
     34          6           0       -4.972295    1.189257   -2.711417
     35          1           0       -4.572079    0.595820   -3.542924
     36          1           0       -6.062537    1.208437   -2.815179
     37          1           0       -4.604227    2.215420   -2.825835
     38          6           0       -5.132608   -0.829255   -1.193351
     39          1           0       -4.705655   -1.512778   -1.938638
     40          1           0       -4.942585   -1.239599   -0.196241
     41          1           0       -6.218301   -0.824701   -1.339721
     42          7           0       -0.245862   -0.859234   -0.046680
     43          1           0       -0.757633   -1.727352   -0.139360
     44          6           0        1.216582   -0.925422    0.092135
     45          1           0        1.485536   -0.065414    0.713396
     46          6           0        1.930244   -0.777995   -1.277222
     47          6           0        1.626336   -2.223097    0.801352
     48          1           0        0.909335   -2.433841    1.599068
     49          1           0        1.632575   -3.051977    0.087780
     50          8           0        2.617585   -1.684879   -1.750206
     51          6           0        2.988131   -2.056394    1.488066
     52          7           0        4.052390   -2.482015    0.763549
     53          1           0        4.976646   -2.292206    1.128810
     54          1           0        3.943489   -2.627857   -0.233824
     55          8           0        3.071891   -1.566040    2.610390
     56          7           0        1.742371    0.412608   -1.884956
     57          1           0        1.204875    1.148498   -1.430585
     58          6           0        2.375237    0.735769   -3.159879
     59          1           0        3.394948    0.338105   -3.154771
     60          6           0        2.427028    2.255064   -3.247716
     61          6           0        1.607977    0.110282   -4.355320
     62          1           0        0.604217    0.554758   -4.395647
     63          1           0        1.483117   -0.949703   -4.104626
     64          8           0        1.678038    2.996754   -2.646869
     65          6           0        2.308660    0.234219   -5.713818
     66          1           0        2.388146    1.282623   -6.018508
     67          1           0        3.336365   -0.146003   -5.634296
     68          6           0        1.569079   -0.547353   -6.813450
     69          1           0        1.504285   -1.608332   -6.542090
     70          1           0        0.540181   -0.181829   -6.895944
     71          7           0        2.199850   -0.473428   -8.132012
     72          1           0        3.129475   -0.882402   -8.149568
     73          7           0        1.011282    1.403657   -8.867147
     74          1           0        0.994056    2.176336   -9.522453
     75          1           0        0.216938    0.787468   -9.010269
     76          7           0        3.353223    1.111978   -9.359082
     77          1           0        3.220853    1.920684   -9.970082
     78          6           0        2.244673    0.733716   -8.837173
     79          8           0        3.385680    2.681977   -4.086791
     80          1           0        3.325364    3.656328   -4.123435
 ---------------------------------------------------------------------

 SCF Done:  E(RB3LYP) =  -1866.58067792     A.U. after    2 cycles

 Alpha  occ. eigenvalues --  -19.27740 -19.27615 -19.23352 -19.22183 -19.20518
 Alpha  occ. eigenvalues --  -19.18540 -14.61331 -14.50560 -14.48067 -14.44252
 Alpha  occ. eigenvalues --  -14.42195 -14.39535 -14.38568 -14.32820 -10.44468
 Alpha  occ. eigenvalues --  -10.41773 -10.40490 -10.40194 -10.37577 -10.36327
 Alpha  occ. eigenvalues --  -10.35711 -10.34696 -10.33440 -10.32222 -10.31770
 Alpha  occ. eigenvalues --  -10.30909 -10.29374 -10.29309 -10.29040 -10.28667
 Alpha  occ. eigenvalues --  -10.28555 -10.28116 -10.28060 -10.27784 -10.27408
 Alpha  occ. eigenvalues --  -10.26423 -10.25986 -10.25894 -10.24394  -1.20095
 Alpha  occ. eigenvalues --   -1.18768  -1.15605  -1.14895  -1.12218  -1.10139
 Alpha  occ. eigenvalues --   -1.09803  -1.07000  -1.04002  -1.01767  -1.00802
 Alpha  occ. eigenvalues --   -0.97238  -0.96750  -0.93298  -0.93171  -0.91281
 Alpha  occ. eigenvalues --   -0.88818  -0.88409  -0.86819  -0.86152  -0.84634
 Alpha  occ. eigenvalues --   -0.84112  -0.80975  -0.80088  -0.77280  -0.76832
 Alpha  occ. eigenvalues --   -0.75961  -0.74974  -0.74040  -0.73616  -0.72791
 Alpha  occ. eigenvalues --   -0.70861  -0.70351  -0.69417  -0.68493  -0.67747
 Alpha  occ. eigenvalues --   -0.67229  -0.65513  -0.65287  -0.65026  -0.63949
 Alpha  occ. eigenvalues --   -0.63930  -0.63049  -0.60997  -0.60676  -0.60341
 Alpha  occ. eigenvalues --   -0.59553  -0.58859  -0.58216  -0.57527  -0.57188
 Alpha  occ. eigenvalues --   -0.57054  -0.56646  -0.55970  -0.55706  -0.55538
 Alpha  occ. eigenvalues --   -0.54942  -0.54284  -0.53963  -0.53403  -0.53218
 Alpha  occ. eigenvalues --   -0.52759  -0.52545  -0.51821  -0.51605  -0.51337
 Alpha  occ. eigenvalues --   -0.50745  -0.50670  -0.50131  -0.49976  -0.49490
 Alpha  occ. eigenvalues --   -0.49066  -0.48870  -0.48462  -0.47874  -0.47202
 Alpha  occ. eigenvalues --   -0.47069  -0.47026  -0.46620  -0.45719  -0.45682
 Alpha  occ. eigenvalues --   -0.45393  -0.44544  -0.44215  -0.43866  -0.43600
 Alpha  occ. eigenvalues --   -0.43318  -0.42703  -0.42138  -0.42002  -0.41906
 Alpha  occ. eigenvalues --   -0.41832  -0.41141  -0.40241  -0.40132  -0.39173
 Alpha  occ. eigenvalues --   -0.38248  -0.37201  -0.35921  -0.34725  -0.34583
 Alpha  occ. eigenvalues --   -0.34355  -0.33531  -0.33494  -0.32189  -0.30885
 Alpha  occ. eigenvalues --   -0.30033  -0.27007
 Alpha virt. eigenvalues --   -0.13595  -0.12008  -0.11068  -0.10124  -0.09363
 Alpha virt. eigenvalues --   -0.07696  -0.06854  -0.06660  -0.04809  -0.03903
 Alpha virt. eigenvalues --   -0.02935  -0.02228  -0.01551  -0.00865   0.00110

 Mulliken charges:
               1
     1  N   -0.751920
     2  H    0.418964
     3  H    0.432488
     4  H    0.416199
     5  C   -0.115828
     6  H    0.215577
     7  C    0.660037
     8  C   -0.381413
     9  H    0.185754
    10  H    0.183954
    11  O   -0.543905
    12  C    0.154685
    13  C   -0.194658
    14  H    0.137043
    15  C   -0.199370
    16  H    0.127020
    17  C   -0.145411
    18  H    0.203876
    19  C   -0.113962
    20  H    0.158357
    21  C   -0.126690
    22  H    0.165388
    23  N   -0.589575
    24  H    0.380499
    25  C   -0.073713
    26  H    0.182301
    27  C    0.634283
    28  C   -0.257848
    29  H    0.165969
    30  H    0.153671
    31  O   -0.538878
    32  C   -0.070790
    33  H    0.111794
    34  C   -0.447115
    35  H    0.153660
    36  H    0.157419
    37  H    0.149418
    38  C   -0.462503
    39  H    0.147296
    40  H    0.158802
    41  H    0.159241
    42  N   -0.608035
    43  H    0.346503
    44  C   -0.075180
    45  H    0.215179
    46  C    0.636136
    47  C   -0.373446
    48  H    0.168106
    49  H    0.183422
    50  O   -0.539913
    51  C    0.565690
    52  N   -0.729309
    53  H    0.347929
    54  H    0.374318
    55  O   -0.502479
    56  N   -0.632109
    57  H    0.380746
    58  C   -0.019243
    59  H    0.196381
    60  C    0.576517
    61  C   -0.277051
    62  H    0.141367
    63  H    0.169346
    64  O   -0.466170
    65  C   -0.268138
    66  H    0.171142
    67  H    0.147873
    68  C   -0.143947
    69  H    0.148714
    70  H    0.144306
    71  N   -0.570071
    72  H    0.329162
    73  N   -0.743277
    74  H    0.323485
    75  H    0.327423
    76  N   -0.628335
    77  H    0.266480
    78  C    0.541182
    79  O   -0.548603
    80  H    0.423786
 Sum of Mulliken charges =   1.00000

 Dipole moment (field-independent basis, Debye):
    X=            -18.1698    Y=              8.2889    Z=              8.4480  Tot=             21.6845
 Quadrupole moment (field-independent basis, Debye-Ang):
   XX=           -133.0516   YY=           -194.3359   ZZ=           -159.8850
   XY=            -35.7044   XZ=            -49.5375   YZ=             19.5217

 Normal termination of Gaussian 16 at Sun Jun 19 01:55:31 2022.
