 Gaussian 16, Revision C.01,
 Gaussian 16:  ES64L-G16RevC.01  3-Jul-2019

 -------------------------------------------------------------------
 # B3LYP/6-31G* guess=read geom=check nosymm integral(ultrafinegrid)
 -------------------------------------------------------------------

 ------------------------------------------------------
 Candidate Structure: Conf:472 Charge calc in gas phase
 ------------------------------------------------------
 Structure from the checkpoint file:  "conf-472.chk"
 Charge =  1 Multiplicity = 1

                          Input orientation:
 ---------------------------------------------------------------------
 Center     Atomic      Atomic             Coordinates (Angstroms)
 Number     Number       Type             X           Y           Z
 ---------------------------------------------------------------------
      1          7           0       -4.782715    1.434149    3.604996
      2          1           0       -5.774542    1.400928    3.355559
      3          1           0       -4.401339    0.445351    3.597284
      4          1           0       -4.685734    1.899976    4.517785
      5          6           0       -3.929352    2.099699    2.548112
      6          1           0       -4.549773    2.779120    1.963815
      7          6           0       -3.406329    0.901412    1.719449
      8          6           0       -2.772740    2.870579    3.223228
      9          1           0       -2.215482    3.348279    2.412502
     10          1           0       -2.101181    2.148465    3.703549
     11          8           0       -3.438888   -0.215781    2.268228
     12          6           0       -3.275646    3.887068    4.225713
     13          6           0       -3.836245    5.097080    3.787979
     14          1           0       -3.851212    5.320410    2.723261
     15          6           0       -3.243478    3.614596    5.602216
     16          1           0       -2.768841    2.702418    5.961808
     17          6           0       -4.350938    6.011034    4.705645
     18          1           0       -4.772841    6.948950    4.355723
     19          6           0       -3.763826    4.530810    6.522946
     20          1           0       -3.720361    4.311762    7.585860
     21          6           0       -4.320022    5.728023    6.075080
     22          1           0       -4.719553    6.443400    6.787681
     23          7           0       -2.947268    1.195791    0.512308
     24          1           0       -2.938235    2.202242    0.212084
     25          6           0       -2.243130    0.221165   -0.321224
     26          1           0       -2.558169   -0.776533   -0.005385
     27          6           0       -0.731963    0.394456   -0.093439
     28          6           0       -2.623805    0.474979   -1.800827
     29          1           0       -3.720775    0.440643   -1.853141
     30          1           0       -2.330004    1.503385   -2.047195
     31          8           0       -0.242870    1.503874    0.160973
     32          6           0       -2.037862   -0.487206   -2.853511
     33          1           0       -0.943250   -0.438715   -2.795460
     34          6           0       -2.482826   -1.942552   -2.637286
     35          1           0       -3.577897   -2.023592   -2.637396
     36          1           0       -2.106308   -2.581978   -3.443263
     37          1           0       -2.116456   -2.370249   -1.696771
     38          6           0       -2.447129   -0.004481   -4.254407
     39          1           0       -3.537560   -0.027303   -4.380152
     40          1           0       -2.107647    1.021211   -4.439181
     41          1           0       -2.010392   -0.644642   -5.028521
     42          7           0        0.022054   -0.706888   -0.241433
     43          1           0       -0.381257   -1.643535   -0.286536
     44          6           0        1.479097   -0.655707   -0.246681
     45          1           0        1.852233   -0.497354    0.774785
     46          6           0        1.941771    0.496715   -1.172236
     47          6           0        2.047270   -1.972604   -0.820642
     48          1           0        1.787033   -2.006012   -1.885367
     49          1           0        3.139337   -1.936529   -0.750884
     50          8           0        1.555906    0.555917   -2.334716
     51          6           0        1.485432   -3.236181   -0.172259
     52          7           0        2.393660   -4.162984    0.217515
     53          1           0        2.053401   -5.047732    0.571123
     54          1           0        3.382205   -4.065914    0.041170
     55          8           0        0.273325   -3.410649   -0.030393
     56          7           0        2.822583    1.372788   -0.632922
     57          1           0        3.076907    1.329121    0.345805
     58          6           0        3.241734    2.560107   -1.359686
     59          1           0        3.519085    2.263566   -2.376120
     60          6           0        4.468554    3.115150   -0.653523
     61          6           0        2.117812    3.626883   -1.469642
     62          1           0        1.252880    3.118487   -1.905009
     63          1           0        2.442982    4.389674   -2.186935
     64          8           0        4.830505    2.785188    0.456107
     65          6           0        1.745279    4.294414   -0.137315
     66          1           0        1.602624    3.537880    0.643332
     67          1           0        2.566871    4.940271    0.195497
     68          6           0        0.478860    5.159880   -0.220567
     69          1           0        0.466327    5.861847    0.627122
     70          1           0        0.524551    5.761356   -1.141243
     71          7           0       -0.725942    4.337656   -0.208513
     72          1           0       -0.628083    3.334737   -0.044044
     73          7           0       -2.147155    6.076177   -0.830042
     74          1           0       -3.042125    6.519396   -0.687903
     75          1           0       -1.358129    6.704731   -0.834817
     76          7           0       -3.008936    3.981627   -0.131908
     77          1           0       -3.880273    4.396630   -0.460251
     78          6           0       -1.996514    4.784761   -0.373912
     79          8           0        5.085622    4.055770   -1.391958
     80          1           0        5.842742    4.380650   -0.867458
 ---------------------------------------------------------------------

 SCF Done:  E(RB3LYP) =  -1866.62470165     A.U. after    1 cycles

 Alpha  occ. eigenvalues --  -19.28068 -19.23739 -19.22580 -19.20801 -19.20341
 Alpha  occ. eigenvalues --  -19.19205 -14.57438 -14.45410 -14.44610 -14.44201
 Alpha  occ. eigenvalues --  -14.44118 -14.43946 -14.42614 -14.37826 -10.40498
 Alpha  occ. eigenvalues --  -10.40307 -10.38185 -10.38013 -10.37901 -10.37475
 Alpha  occ. eigenvalues --  -10.36663 -10.32797 -10.31984 -10.31913 -10.31524
 Alpha  occ. eigenvalues --  -10.31036 -10.30785 -10.29743 -10.29324 -10.29241
 Alpha  occ. eigenvalues --  -10.29184 -10.28982 -10.28913 -10.27143 -10.26751
 Alpha  occ. eigenvalues --  -10.26280 -10.25204 -10.23466 -10.23078  -1.19086
 Alpha  occ. eigenvalues --   -1.16138  -1.12806  -1.12026  -1.11269  -1.11032
 Alpha  occ. eigenvalues --   -1.10120  -1.06738  -1.02765  -1.00977  -1.00564
 Alpha  occ. eigenvalues --   -0.99247  -0.97444  -0.96268  -0.93140  -0.91217
 Alpha  occ. eigenvalues --   -0.88808  -0.87900  -0.86527  -0.85241  -0.84697
 Alpha  occ. eigenvalues --   -0.82861  -0.82099  -0.77532  -0.76921  -0.75557
 Alpha  occ. eigenvalues --   -0.74234  -0.72655  -0.71728  -0.71194  -0.70878
 Alpha  occ. eigenvalues --   -0.70282  -0.69763  -0.69502  -0.68754  -0.68303
 Alpha  occ. eigenvalues --   -0.67469  -0.66717  -0.65201  -0.63509  -0.62882
 Alpha  occ. eigenvalues --   -0.62837  -0.62317  -0.61346  -0.60651  -0.60400
 Alpha  occ. eigenvalues --   -0.60101  -0.59085  -0.57600  -0.57172  -0.56984
 Alpha  occ. eigenvalues --   -0.56449  -0.56317  -0.55986  -0.55626  -0.55062
 Alpha  occ. eigenvalues --   -0.54664  -0.54414  -0.53928  -0.53211  -0.53037
 Alpha  occ. eigenvalues --   -0.52250  -0.51968  -0.51891  -0.51780  -0.50730
 Alpha  occ. eigenvalues --   -0.50558  -0.50074  -0.49872  -0.49431  -0.49093
 Alpha  occ. eigenvalues --   -0.48633  -0.48405  -0.48275  -0.48209  -0.47405
 Alpha  occ. eigenvalues --   -0.47265  -0.46409  -0.46044  -0.45793  -0.45528
 Alpha  occ. eigenvalues --   -0.45006  -0.44483  -0.44256  -0.44201  -0.43917
 Alpha  occ. eigenvalues --   -0.43159  -0.42639  -0.42281  -0.41874  -0.40220
 Alpha  occ. eigenvalues --   -0.39848  -0.39117  -0.38852  -0.38392  -0.36926
 Alpha  occ. eigenvalues --   -0.36415  -0.36258  -0.35741  -0.35553  -0.34930
 Alpha  occ. eigenvalues --   -0.34828  -0.34680  -0.34461  -0.34100  -0.33254
 Alpha  occ. eigenvalues --   -0.32414  -0.30533
 Alpha virt. eigenvalues --   -0.11512  -0.11073  -0.08583  -0.07993  -0.07582
 Alpha virt. eigenvalues --   -0.07106  -0.06595  -0.04767  -0.03989  -0.02016
 Alpha virt. eigenvalues --   -0.01869  -0.00900  -0.00373  -0.00232   0.00491

 Mulliken charges:
               1
     1  N   -0.752507
     2  H    0.409122
     3  H    0.422472
     4  H    0.399972
     5  C   -0.105846
     6  H    0.211278
     7  C    0.632637
     8  C   -0.382922
     9  H    0.228347
    10  H    0.180625
    11  O   -0.557426
    12  C    0.133862
    13  C   -0.182276
    14  H    0.143566
    15  C   -0.227530
    16  H    0.145662
    17  C   -0.124528
    18  H    0.156604
    19  C   -0.122304
    20  H    0.161388
    21  C   -0.125332
    22  H    0.162507
    23  N   -0.625905
    24  H    0.435722
    25  C   -0.101413
    26  H    0.189530
    27  C    0.658997
    28  C   -0.269596
    29  H    0.145374
    30  H    0.159054
    31  O   -0.565038
    32  C   -0.100404
    33  H    0.167639
    34  C   -0.461261
    35  H    0.142367
    36  H    0.157734
    37  H    0.146969
    38  C   -0.443676
    39  H    0.140160
    40  H    0.147656
    41  H    0.154500
    42  N   -0.625042
    43  H    0.401077
    44  C   -0.017125
    45  H    0.157180
    46  C    0.651417
    47  C   -0.405929
    48  H    0.221861
    49  H    0.162944
    50  O   -0.530924
    51  C    0.620665
    52  N   -0.738795
    53  H    0.360476
    54  H    0.353539
    55  O   -0.524314
    56  N   -0.611478
    57  H    0.349913
    58  C   -0.038512
    59  H    0.205592
    60  C    0.586037
    61  C   -0.273637
    62  H    0.193522
    63  H    0.162531
    64  O   -0.469155
    65  C   -0.311685
    66  H    0.166259
    67  H    0.156278
    68  C   -0.131684
    69  H    0.151933
    70  H    0.152430
    71  N   -0.651608
    72  H    0.408407
    73  N   -0.767546
    74  H    0.338849
    75  H    0.349187
    76  N   -0.785226
    77  H    0.279295
    78  C    0.704172
    79  O   -0.561256
    80  H    0.424570
 Sum of Mulliken charges =   1.00000

 Dipole moment (field-independent basis, Debye):
    X=             -9.1379    Y=             12.1875    Z=             10.3855  Tot=             18.4363
 Quadrupole moment (field-independent basis, Debye-Ang):
   XX=           -119.8161   YY=           -125.7934   ZZ=           -176.7520
   XY=            -52.2463   XZ=            -56.9749   YZ=             27.9014

 Normal termination of Gaussian 16 at Sun Jun 19 01:55:07 2022.
