 Gaussian 16, Revision C.01,
 Gaussian 16:  ES64L-G16RevC.01  3-Jul-2019

 -------------------------------------------------------------------
 # B3LYP/6-31G* guess=read geom=check nosymm integral(ultrafinegrid)
 -------------------------------------------------------------------

 ------------------------------------------------------
 Candidate Structure: Conf:684 Charge calc in gas phase
 ------------------------------------------------------
 Structure from the checkpoint file:  "conf-684.chk"
 Charge =  1 Multiplicity = 1

                          Input orientation:
 ---------------------------------------------------------------------
 Center     Atomic      Atomic             Coordinates (Angstroms)
 Number     Number       Type             X           Y           Z
 ---------------------------------------------------------------------
      1          7           0       -1.768909    1.242456    5.472479
      2          1           0       -2.470684    1.111999    6.205018
      3          1           0       -1.435079    0.290930    5.099333
      4          1           0       -0.981434    1.767576    5.862998
      5          6           0       -2.319325    1.871932    4.204167
      6          1           0       -3.381343    2.070001    4.365978
      7          6           0       -2.111555    0.731216    3.165516
      8          6           0       -1.567007    3.181371    3.860856
      9          1           0       -0.571268    2.927283    3.481648
     10          1           0       -1.440828    3.748192    4.793791
     11          8           0       -1.542095   -0.298509    3.561172
     12          6           0       -2.307244    4.049417    2.857550
     13          6           0       -1.869661    4.142357    1.527802
     14          1           0       -1.004230    3.569116    1.205110
     15          6           0       -3.432445    4.783958    3.261428
     16          1           0       -3.769227    4.740497    4.296053
     17          6           0       -2.554800    4.956178    0.620589
     18          1           0       -2.204658    5.026535   -0.405191
     19          6           0       -4.113346    5.593724    2.353694
     20          1           0       -4.978598    6.162835    2.680665
     21          6           0       -3.674703    5.680720    1.029823
     22          1           0       -4.201742    6.315502    0.323673
     23          7           0       -2.555515    0.932012    1.927761
     24          1           0       -2.857387    1.871249    1.686158
     25          6           0       -2.095968    0.094730    0.810421
     26          1           0       -2.290913   -0.947368    1.076019
     27          6           0       -0.570675    0.318875    0.647593
     28          6           0       -2.898017    0.499644   -0.447370
     29          1           0       -3.956411    0.542133   -0.152600
     30          1           0       -2.599920    1.520840   -0.722320
     31          8           0       -0.028646    1.352294    1.046953
     32          6           0       -2.768892   -0.414515   -1.683199
     33          1           0       -1.711815   -0.469618   -1.965780
     34          6           0       -3.291904   -1.834897   -1.419930
     35          1           0       -4.351044   -1.816838   -1.130245
     36          1           0       -3.201163   -2.446679   -2.322919
     37          1           0       -2.734604   -2.358325   -0.634948
     38          6           0       -3.521772    0.227985   -2.858941
     39          1           0       -4.592445    0.331931   -2.638670
     40          1           0       -3.124533    1.222556   -3.092240
     41          1           0       -3.427151   -0.387924   -3.759480
     42          7           0        0.097368   -0.686383    0.050136
     43          1           0       -0.387197   -1.493300   -0.346682
     44          6           0        1.467039   -0.520234   -0.394201
     45          1           0        2.063694   -0.134659    0.440082
     46          6           0        1.557231    0.476037   -1.575053
     47          6           0        2.040928   -1.889879   -0.838116
     48          1           0        3.063057   -1.755084   -1.200679
     49          1           0        2.071475   -2.554701    0.031415
     50          8           0        0.610632    0.704630   -2.314020
     51          6           0        1.157991   -2.565356   -1.890534
     52          7           0        1.721562   -2.769434   -3.100640
     53          1           0        1.125340   -3.139750   -3.829906
     54          1           0        2.565527   -2.278097   -3.376175
     55          8           0        0.006283   -2.913030   -1.611284
     56          7           0        2.797456    1.028429   -1.747340
     57          1           0        3.553077    0.673889   -1.175370
     58          6           0        3.176878    1.637243   -3.009041
     59          1           0        2.264895    2.067281   -3.434509
     60          6           0        3.650895    0.555491   -3.989154
     61          6           0        4.230554    2.750971   -2.836155
     62          1           0        3.790222    3.526667   -2.197813
     63          1           0        4.396444    3.200394   -3.821210
     64          8           0        3.751000   -0.629842   -3.734365
     65          6           0        5.573283    2.277858   -2.261025
     66          1           0        5.450383    1.942592   -1.219744
     67          1           0        5.966261    1.434060   -2.838731
     68          6           0        6.633487    3.392131   -2.303900
     69          1           0        6.772679    3.709688   -3.341158
     70          1           0        6.295861    4.264242   -1.730118
     71          7           0        7.942344    3.011410   -1.794010
     72          1           0        8.000491    2.883432   -0.790864
     73          7           0        9.916578    1.811872   -1.831275
     74          1           0       10.588087    1.295282   -2.386240
     75          1           0       10.353874    2.596966   -1.359375
     76          7           0        8.363692    1.707395   -3.673204
     77          1           0        9.113892    1.190832   -4.134431
     78          6           0        8.741392    2.138121   -2.522873
     79          8           0        3.951721    1.075710   -5.187504
     80          1           0        4.274883    0.349042   -5.754175
 ---------------------------------------------------------------------

 SCF Done:  E(RB3LYP) =  -1866.59504882     A.U. after    1 cycles

 Alpha  occ. eigenvalues --  -19.27951 -19.26646 -19.22840 -19.20355 -19.19831
 Alpha  occ. eigenvalues --  -19.18928 -14.59330 -14.48650 -14.44140 -14.43758
 Alpha  occ. eigenvalues --  -14.42507 -14.40094 -14.40071 -14.33753 -10.42992
 Alpha  occ. eigenvalues --  -10.40561 -10.40420 -10.37346 -10.36787 -10.36664
 Alpha  occ. eigenvalues --  -10.33548 -10.33339 -10.33122 -10.32397 -10.31718
 Alpha  occ. eigenvalues --  -10.30775 -10.29394 -10.28767 -10.28638 -10.28558
 Alpha  occ. eigenvalues --  -10.28501 -10.28358 -10.27434 -10.27329 -10.26456
 Alpha  occ. eigenvalues --  -10.25487 -10.24867 -10.23406 -10.23350  -1.19109
 Alpha  occ. eigenvalues --   -1.19054  -1.13271  -1.12397  -1.11419  -1.10516
 Alpha  occ. eigenvalues --   -1.10034  -1.05446  -1.02836  -1.00873  -1.00763
 Alpha  occ. eigenvalues --   -0.97547  -0.96319  -0.94106  -0.92387  -0.89339
 Alpha  occ. eigenvalues --   -0.89261  -0.87741  -0.85822  -0.85533  -0.84262
 Alpha  occ. eigenvalues --   -0.82803  -0.81047  -0.79191  -0.76332  -0.74442
 Alpha  occ. eigenvalues --   -0.73927  -0.73876  -0.73229  -0.72485  -0.71561
 Alpha  occ. eigenvalues --   -0.70377  -0.69910  -0.68339  -0.67981  -0.66577
 Alpha  occ. eigenvalues --   -0.66172  -0.65822  -0.64611  -0.63747  -0.63224
 Alpha  occ. eigenvalues --   -0.62572  -0.61555  -0.60860  -0.60561  -0.59425
 Alpha  occ. eigenvalues --   -0.59159  -0.58082  -0.57960  -0.57458  -0.57186
 Alpha  occ. eigenvalues --   -0.56554  -0.56182  -0.55727  -0.55377  -0.54490
 Alpha  occ. eigenvalues --   -0.54157  -0.53833  -0.53164  -0.52756  -0.52232
 Alpha  occ. eigenvalues --   -0.51973  -0.51473  -0.51210  -0.50991  -0.50559
 Alpha  occ. eigenvalues --   -0.50237  -0.49788  -0.49624  -0.49199  -0.49035
 Alpha  occ. eigenvalues --   -0.48699  -0.48153  -0.47660  -0.47259  -0.46746
 Alpha  occ. eigenvalues --   -0.46206  -0.45839  -0.45589  -0.45192  -0.44546
 Alpha  occ. eigenvalues --   -0.44354  -0.44243  -0.44168  -0.43746  -0.43477
 Alpha  occ. eigenvalues --   -0.42959  -0.41614  -0.41477  -0.41436  -0.40504
 Alpha  occ. eigenvalues --   -0.40090  -0.39769  -0.39268  -0.39160  -0.38639
 Alpha  occ. eigenvalues --   -0.36378  -0.35191  -0.34902  -0.34814  -0.34352
 Alpha  occ. eigenvalues --   -0.34082  -0.33830  -0.32882  -0.32312  -0.31914
 Alpha  occ. eigenvalues --   -0.30713  -0.28028
 Alpha virt. eigenvalues --   -0.12373  -0.10959  -0.10493  -0.10032  -0.07683
 Alpha virt. eigenvalues --   -0.06648  -0.05950  -0.05756  -0.05269  -0.03140
 Alpha virt. eigenvalues --   -0.00875  -0.00676  -0.00049   0.00032   0.00261

 Mulliken charges:
               1
     1  N   -0.765850
     2  H    0.413616
     3  H    0.437834
     4  H    0.411935
     5  C   -0.110041
     6  H    0.221436
     7  C    0.663635
     8  C   -0.385223
     9  H    0.214434
    10  H    0.174075
    11  O   -0.542561
    12  C    0.118547
    13  C   -0.220871
    14  H    0.200360
    15  C   -0.177608
    16  H    0.127281
    17  C   -0.130855
    18  H    0.162289
    19  C   -0.125212
    20  H    0.159219
    21  C   -0.121664
    22  H    0.161902
    23  N   -0.590800
    24  H    0.366474
    25  C   -0.074594
    26  H    0.193899
    27  C    0.656445
    28  C   -0.293053
    29  H    0.149895
    30  H    0.154309
    31  O   -0.561931
    32  C   -0.103967
    33  H    0.176387
    34  C   -0.449831
    35  H    0.136801
    36  H    0.166740
    37  H    0.146467
    38  C   -0.446067
    39  H    0.139420
    40  H    0.148482
    41  H    0.156713
    42  N   -0.615969
    43  H    0.396237
    44  C   -0.077363
    45  H    0.172577
    46  C    0.645686
    47  C   -0.383183
    48  H    0.174008
    49  H    0.197219
    50  O   -0.513697
    51  C    0.603576
    52  N   -0.752974
    53  H    0.348728
    54  H    0.393626
    55  O   -0.531695
    56  N   -0.594142
    57  H    0.339621
    58  C   -0.068107
    59  H    0.214403
    60  C    0.612675
    61  C   -0.278917
    62  H    0.155455
    63  H    0.178859
    64  O   -0.494725
    65  C   -0.292798
    66  H    0.111259
    67  H    0.190756
    68  C   -0.121839
    69  H    0.182820
    70  H    0.138711
    71  N   -0.594054
    72  H    0.317151
    73  N   -0.758113
    74  H    0.326301
    75  H    0.328754
    76  N   -0.655017
    77  H    0.271178
    78  C    0.592067
    79  O   -0.544401
    80  H    0.426861
 Sum of Mulliken charges =   1.00000

 Dipole moment (field-independent basis, Debye):
    X=              0.5200    Y=              9.3566    Z=             13.2877  Tot=             16.2597
 Quadrupole moment (field-independent basis, Debye-Ang):
   XX=           -116.1430   YY=           -199.2265   ZZ=           -106.3007
   XY=            -14.1508   XZ=            -54.5861   YZ=             37.0692

 Normal termination of Gaussian 16 at Sun Jun 19 01:55:12 2022.
