 Gaussian 16, Revision C.01,
 Gaussian 16:  ES64L-G16RevC.01  3-Jul-2019

 -------------------------------------------------------------------
 # B3LYP/6-31G* guess=read geom=check nosymm integral(ultrafinegrid)
 -------------------------------------------------------------------

 ------------------------------------------------------
 Candidate Structure: Conf:197 Charge calc in gas phase
 ------------------------------------------------------
 Structure from the checkpoint file:  "conf-197.chk"
 Charge =  1 Multiplicity = 1

                          Input orientation:
 ---------------------------------------------------------------------
 Center     Atomic      Atomic             Coordinates (Angstroms)
 Number     Number       Type             X           Y           Z
 ---------------------------------------------------------------------
      1          7           0       -2.236045    0.057031    4.101523
      2          1           0       -2.547932   -0.912910    3.965170
      3          1           0       -1.204672    0.106849    3.802140
      4          1           0       -2.289318    0.332421    5.087202
      5          6           0       -3.100679    0.950558    3.250189
      6          1           0       -4.096923    0.945203    3.707361
      7          6           0       -3.186837    0.216533    1.890871
      8          6           0       -2.532887    2.383629    3.258037
      9          1           0       -3.207680    3.018382    2.671778
     10          1           0       -1.558411    2.386090    2.757240
     11          8           0       -2.985276   -1.003591    1.876186
     12          6           0       -2.411710    2.944537    4.664558
     13          6           0       -1.201360    2.848765    5.368635
     14          1           0       -0.331346    2.401866    4.891768
     15          6           0       -3.518894    3.536732    5.288877
     16          1           0       -4.458968    3.633483    4.748987
     17          6           0       -1.105541    3.336977    6.674315
     18          1           0       -0.161527    3.266242    7.206799
     19          6           0       -3.420266    4.025049    6.591627
     20          1           0       -4.282268    4.491173    7.059681
     21          6           0       -2.212982    3.924730    7.287144
     22          1           0       -2.134880    4.310136    8.299333
     23          7           0       -3.483552    0.944124    0.798271
     24          1           0       -3.525719    1.953218    0.873739
     25          6           0       -3.365248    0.403366   -0.580268
     26          1           0       -3.670824   -0.643920   -0.529925
     27          6           0       -1.854405    0.513478   -0.891961
     28          6           0       -4.229594    1.190752   -1.563771
     29          1           0       -3.856675    2.222201   -1.601695
     30          1           0       -4.038759    0.775482   -2.561954
     31          8           0       -1.366257    1.502886   -1.426355
     32          6           0       -5.745855    1.175874   -1.282893
     33          1           0       -5.912606    1.577518   -0.271386
     34          6           0       -6.461495    2.103423   -2.276744
     35          1           0       -6.336449    1.746415   -3.306470
     36          1           0       -7.535805    2.145265   -2.068152
     37          1           0       -6.069062    3.125783   -2.228886
     38          6           0       -6.340668   -0.239859   -1.332012
     39          1           0       -6.172925   -0.701507   -2.313422
     40          1           0       -5.913878   -0.903501   -0.570541
     41          1           0       -7.422414   -0.209151   -1.163642
     42          7           0       -1.089356   -0.494684   -0.374265
     43          1           0       -1.593645   -1.240514    0.091032
     44          6           0        0.243810   -0.199159    0.166229
     45          1           0        0.247852    0.876962    0.393750
     46          6           0        1.439715   -0.382356   -0.798423
     47          6           0        0.471228   -1.019680    1.463483
     48          1           0       -0.479596   -1.398646    1.840283
     49          1           0        1.130151   -1.864355    1.248514
     50          8           0        2.523136   -0.788887   -0.362930
     51          6           0        1.075030   -0.148073    2.550171
     52          7           0        2.378522    0.105431    2.419190
     53          1           0        2.843454    0.722893    3.072253
     54          1           0        2.862813   -0.229813    1.585315
     55          8           0        0.380681    0.329699    3.476773
     56          7           0        1.232669   -0.009160   -2.072148
     57          1           0        0.386820    0.516841   -2.279076
     58          6           0        2.329534    0.040587   -3.036918
     59          1           0        2.889096   -0.895553   -2.965063
     60          6           0        3.337694    1.147469   -2.721564
     61          6           0        1.746225    0.197538   -4.457994
     62          1           0        1.184246    1.138523   -4.518600
     63          1           0        1.015192   -0.604607   -4.601576
     64          8           0        4.500226    1.117887   -3.048922
     65          6           0        2.791771    0.145134   -5.577874
     66          1           0        3.498894    0.976535   -5.474197
     67          1           0        3.382751   -0.776111   -5.492628
     68          6           0        2.172410    0.217333   -6.980838
     69          1           0        1.515416    1.089491   -7.061701
     70          1           0        2.980495    0.336122   -7.710898
     71          7           0        1.411045   -0.979937   -7.354099
     72          1           0        1.803318   -1.488262   -8.136035
     73          7           0       -0.519596   -2.033489   -8.077141
     74          1           0       -1.509056   -2.177319   -7.919647
     75          1           0       -0.003391   -2.903197   -7.996055
     76          7           0       -0.625944   -0.004154   -6.789803
     77          1           0       -1.632311   -0.163988   -6.851130
     78          6           0        0.022530   -0.954606   -7.364396
     79          8           0        2.775218    2.204496   -2.084021
     80          1           0        3.487043    2.866123   -1.989425
 ---------------------------------------------------------------------

 SCF Done:  E(RB3LYP) =  -1866.60526604     A.U. after    3 cycles

 Alpha  occ. eigenvalues --  -19.26944 -19.26692 -19.25353 -19.23782 -19.21710
 Alpha  occ. eigenvalues --  -19.20652 -14.57077 -14.51038 -14.47429 -14.47226
 Alpha  occ. eigenvalues --  -14.44871 -14.40346 -14.39892 -14.33668 -10.44249
 Alpha  occ. eigenvalues --  -10.41949 -10.40423 -10.40225 -10.38758 -10.38551
 Alpha  occ. eigenvalues --  -10.35566 -10.35534 -10.33830 -10.33442 -10.31380
 Alpha  occ. eigenvalues --  -10.31302 -10.31179 -10.29886 -10.29736 -10.29340
 Alpha  occ. eigenvalues --  -10.29327 -10.29106 -10.28716 -10.28373 -10.26696
 Alpha  occ. eigenvalues --  -10.25986 -10.25412 -10.25403 -10.23946  -1.19109
 Alpha  occ. eigenvalues --   -1.17427  -1.16015  -1.15611  -1.13184  -1.12022
 Alpha  occ. eigenvalues --   -1.08352  -1.06991  -1.04178  -1.02821  -1.02706
 Alpha  occ. eigenvalues --   -1.01421  -0.96814  -0.93922  -0.93020  -0.90900
 Alpha  occ. eigenvalues --   -0.89716  -0.89415  -0.86655  -0.86553  -0.84979
 Alpha  occ. eigenvalues --   -0.84548  -0.81230  -0.79247  -0.78662  -0.76770
 Alpha  occ. eigenvalues --   -0.75226  -0.73634  -0.73436  -0.72635  -0.72055
 Alpha  occ. eigenvalues --   -0.71346  -0.70311  -0.69156  -0.69093  -0.68766
 Alpha  occ. eigenvalues --   -0.67462  -0.66605  -0.65647  -0.65261  -0.64090
 Alpha  occ. eigenvalues --   -0.63328  -0.63025  -0.62593  -0.61907  -0.61728
 Alpha  occ. eigenvalues --   -0.60770  -0.59454  -0.59085  -0.58906  -0.57566
 Alpha  occ. eigenvalues --   -0.57261  -0.56889  -0.56830  -0.55946  -0.55490
 Alpha  occ. eigenvalues --   -0.55202  -0.54551  -0.54352  -0.53858  -0.53312
 Alpha  occ. eigenvalues --   -0.53000  -0.52750  -0.52371  -0.52163  -0.52033
 Alpha  occ. eigenvalues --   -0.51741  -0.51504  -0.51073  -0.50628  -0.50491
 Alpha  occ. eigenvalues --   -0.50223  -0.49395  -0.49072  -0.48085  -0.48021
 Alpha  occ. eigenvalues --   -0.47703  -0.46947  -0.46650  -0.46576  -0.46493
 Alpha  occ. eigenvalues --   -0.46265  -0.45386  -0.45072  -0.44595  -0.44563
 Alpha  occ. eigenvalues --   -0.42981  -0.42067  -0.41916  -0.41690  -0.41191
 Alpha  occ. eigenvalues --   -0.41160  -0.40842  -0.40444  -0.39735  -0.39497
 Alpha  occ. eigenvalues --   -0.39234  -0.38703  -0.38312  -0.37183  -0.36269
 Alpha  occ. eigenvalues --   -0.35639  -0.35403  -0.34473  -0.32895  -0.32279
 Alpha  occ. eigenvalues --   -0.30463  -0.27868
 Alpha virt. eigenvalues --   -0.14078  -0.11339  -0.10978  -0.10618  -0.09513
 Alpha virt. eigenvalues --   -0.08044  -0.06935  -0.05840  -0.05021  -0.02230
 Alpha virt. eigenvalues --   -0.01824  -0.01371  -0.01062  -0.00680  -0.00197

 Mulliken charges:
               1
     1  N   -0.770291
     2  H    0.410600
     3  H    0.452691
     4  H    0.404931
     5  C   -0.116376
     6  H    0.225555
     7  C    0.662721
     8  C   -0.389446
     9  H    0.179859
    10  H    0.193038
    11  O   -0.548493
    12  C    0.127723
    13  C   -0.221344
    14  H    0.166358
    15  C   -0.182655
    16  H    0.138110
    17  C   -0.127398
    18  H    0.160388
    19  C   -0.124956
    20  H    0.162712
    21  C   -0.122734
    22  H    0.164250
    23  N   -0.600574
    24  H    0.359901
    25  C   -0.080366
    26  H    0.195866
    27  C    0.602933
    28  C   -0.284179
    29  H    0.165805
    30  H    0.169875
    31  O   -0.505962
    32  C   -0.077886
    33  H    0.115231
    34  C   -0.445595
    35  H    0.155946
    36  H    0.159247
    37  H    0.149251
    38  C   -0.455623
    39  H    0.153947
    40  H    0.140661
    41  H    0.164479
    42  N   -0.596403
    43  H    0.362708
    44  C   -0.075397
    45  H    0.199805
    46  C    0.657247
    47  C   -0.403984
    48  H    0.170874
    49  H    0.220431
    50  O   -0.548999
    51  C    0.593362
    52  N   -0.714681
    53  H    0.360775
    54  H    0.404954
    55  O   -0.573181
    56  N   -0.614470
    57  H    0.377007
    58  C   -0.028069
    59  H    0.198285
    60  C    0.597838
    61  C   -0.294659
    62  H    0.164815
    63  H    0.176418
    64  O   -0.451110
    65  C   -0.257271
    66  H    0.156520
    67  H    0.143031
    68  C   -0.143493
    69  H    0.185504
    70  H    0.145306
    71  N   -0.596744
    72  H    0.324553
    73  N   -0.755008
    74  H    0.322934
    75  H    0.324329
    76  N   -0.658446
    77  H    0.264300
    78  C    0.591819
    79  O   -0.575110
    80  H    0.416011
 Sum of Mulliken charges =   1.00000

 Dipole moment (field-independent basis, Debye):
    X=            -11.1278    Y=              2.1052    Z=             10.0201  Tot=             15.1216
 Quadrupole moment (field-independent basis, Debye-Ang):
   XX=           -176.3496   YY=           -204.1960   ZZ=           -118.9854
   XY=             -9.5460   XZ=            -25.0448   YZ=             43.9137

 Normal termination of Gaussian 16 at Sun Jun 19 01:55:46 2022.
