 Gaussian 16, Revision C.01,
 Gaussian 16:  ES64L-G16RevC.01  3-Jul-2019

 -------------------------------------------------------------------
 # B3LYP/6-31G* guess=read geom=check nosymm integral(ultrafinegrid)
 -------------------------------------------------------------------

 ------------------------------------------------------
 Candidate Structure: Conf:549 Charge calc in gas phase
 ------------------------------------------------------
 Structure from the checkpoint file:  "conf-549.chk"
 Charge =  1 Multiplicity = 1

                          Input orientation:
 ---------------------------------------------------------------------
 Center     Atomic      Atomic             Coordinates (Angstroms)
 Number     Number       Type             X           Y           Z
 ---------------------------------------------------------------------
      1          7           0       -3.812399    0.293243    4.595159
      2          1           0       -4.661822   -0.232545    4.819168
      3          1           0       -3.094058   -0.378941    4.223078
      4          1           0       -3.489203    0.781232    5.446428
      5          6           0       -4.001929    1.270020    3.457228
      6          1           0       -5.070230    1.479398    3.369124
      7          6           0       -3.430894    0.519437    2.233119
      8          6           0       -3.198784    2.572145    3.736331
      9          1           0       -3.495402    3.299032    2.973326
     10          1           0       -2.136076    2.372624    3.563032
     11          8           0       -2.722844   -0.473801    2.448931
     12          6           0       -3.443097    3.109331    5.130515
     13          6           0       -4.617980    3.811672    5.440514
     14          1           0       -5.342759    4.027775    4.658129
     15          6           0       -2.511535    2.862190    6.153044
     16          1           0       -1.571861    2.363927    5.919180
     17          6           0       -4.853407    4.259283    6.739513
     18          1           0       -5.759788    4.814434    6.962427
     19          6           0       -2.751448    3.307083    7.457736
     20          1           0       -2.015060    3.122185    8.234135
     21          6           0       -3.922889    4.003645    7.751628
     22          1           0       -4.107595    4.357047    8.761498
     23          7           0       -3.701963    1.021382    1.024811
     24          1           0       -4.185466    1.910556    0.980363
     25          6           0       -2.849443    0.692287   -0.128452
     26          1           0       -2.941935   -0.380660   -0.317491
     27          6           0       -1.387106    1.033003    0.251787
     28          6           0       -3.289333    1.505511   -1.357308
     29          1           0       -3.243949    2.570561   -1.085231
     30          1           0       -2.525921    1.372329   -2.133958
     31          8           0       -1.138526    1.962922    1.022747
     32          6           0       -4.681624    1.164463   -1.929046
     33          1           0       -5.424611    1.263207   -1.121390
     34          6           0       -5.048561    2.175627   -3.026233
     35          1           0       -4.339717    2.119868   -3.861455
     36          1           0       -6.048638    1.974610   -3.424769
     37          1           0       -5.038364    3.204612   -2.647300
     38          6           0       -4.756982   -0.272581   -2.465979
     39          1           0       -4.020399   -0.431004   -3.263495
     40          1           0       -4.576019   -1.022926   -1.687663
     41          1           0       -5.748080   -0.475332   -2.885602
     42          7           0       -0.469456    0.237395   -0.317458
     43          1           0       -0.717417   -0.478613   -0.999883
     44          6           0        0.962334    0.484662   -0.257587
     45          1           0        1.139416    1.547779   -0.449114
     46          6           0        1.560542   -0.330272   -1.424151
     47          6           0        1.558448    0.108591    1.122693
     48          1           0        2.614101    0.392719    1.150768
     49          1           0        1.027432    0.694179    1.879466
     50          8           0        0.875480   -1.166033   -2.017056
     51          6           0        1.497634   -1.391725    1.413128
     52          7           0        0.348051   -1.834430    2.018822
     53          1           0        0.234582   -2.839967    2.053100
     54          1           0       -0.499856   -1.282635    1.990789
     55          8           0        2.424723   -2.136069    1.134118
     56          7           0        2.835272   -0.037729   -1.741858
     57          1           0        3.336877    0.659575   -1.209797
     58          6           0        3.543934   -0.676620   -2.847851
     59          1           0        3.533469   -1.762131   -2.691873
     60          6           0        5.014209   -0.271584   -2.862209
     61          6           0        2.902311   -0.388885   -4.231146
     62          1           0        1.980941   -0.975794   -4.277186
     63          1           0        3.581515   -0.794748   -4.986198
     64          8           0        5.818837   -0.712334   -3.645797
     65          6           0        2.594406    1.106540   -4.482049
     66          1           0        2.878992    1.709448   -3.612386
     67          1           0        3.182039    1.480362   -5.329999
     68          6           0        1.097315    1.345532   -4.748482
     69          1           0        0.803309    0.865687   -5.690336
     70          1           0        0.503070    0.897402   -3.950531
     71          7           0        0.721185    2.752939   -4.820347
     72          1           0        1.218436    3.291243   -5.519954
     73          7           0        0.327485    4.841383   -3.919504
     74          1           0       -0.092396    5.376021   -3.170041
     75          1           0       -0.051595    5.100753   -4.823880
     76          7           0        0.235973    2.881244   -2.538126
     77          1           0       -0.085404    3.554558   -1.841043
     78          6           0        0.407310    3.465411   -3.678388
     79          8           0        5.331934    0.650938   -1.916997
     80          1           0        6.286499    0.831561   -2.013561
 ---------------------------------------------------------------------

 SCF Done:  E(RB3LYP) =  -1866.58298203     A.U. after    1 cycles

 Alpha  occ. eigenvalues --  -19.27815 -19.27174 -19.20867 -19.20637 -19.19381
 Alpha  occ. eigenvalues --  -19.17286 -14.60268 -14.50449 -14.44540 -14.43423
 Alpha  occ. eigenvalues --  -14.41669 -14.41565 -14.41037 -14.35267 -10.44391
 Alpha  occ. eigenvalues --  -10.41456 -10.39100 -10.38052 -10.36406 -10.35119
 Alpha  occ. eigenvalues --  -10.34985 -10.34414 -10.34197 -10.32719 -10.31491
 Alpha  occ. eigenvalues --  -10.31424 -10.31181 -10.30885 -10.30776 -10.30715
 Alpha  occ. eigenvalues --  -10.30432 -10.28837 -10.28433 -10.27252 -10.26917
 Alpha  occ. eigenvalues --  -10.25759 -10.25622 -10.24805 -10.24322  -1.20039
 Alpha  occ. eigenvalues --   -1.17708  -1.14530  -1.12733  -1.11209  -1.09137
 Alpha  occ. eigenvalues --   -1.08606  -1.06853  -1.04142  -1.01326  -1.00155
 Alpha  occ. eigenvalues --   -0.98112  -0.96292  -0.95134  -0.93807  -0.90950
 Alpha  occ. eigenvalues --   -0.90671  -0.87725  -0.87102  -0.86367  -0.85329
 Alpha  occ. eigenvalues --   -0.83731  -0.80634  -0.79930  -0.76921  -0.76469
 Alpha  occ. eigenvalues --   -0.74768  -0.74438  -0.74023  -0.73759  -0.72788
 Alpha  occ. eigenvalues --   -0.72157  -0.70656  -0.69458  -0.68293  -0.66810
 Alpha  occ. eigenvalues --   -0.66217  -0.65130  -0.64741  -0.64297  -0.63887
 Alpha  occ. eigenvalues --   -0.63602  -0.62932  -0.62396  -0.60507  -0.60298
 Alpha  occ. eigenvalues --   -0.59896  -0.59218  -0.58552  -0.58201  -0.57469
 Alpha  occ. eigenvalues --   -0.56921  -0.56065  -0.55402  -0.55162  -0.55007
 Alpha  occ. eigenvalues --   -0.54603  -0.54286  -0.53826  -0.53751  -0.53151
 Alpha  occ. eigenvalues --   -0.52345  -0.52312  -0.52081  -0.51755  -0.51193
 Alpha  occ. eigenvalues --   -0.51031  -0.50951  -0.50411  -0.49535  -0.49148
 Alpha  occ. eigenvalues --   -0.48247  -0.48025  -0.47703  -0.47478  -0.47025
 Alpha  occ. eigenvalues --   -0.46650  -0.46530  -0.46429  -0.46266  -0.45901
 Alpha  occ. eigenvalues --   -0.45415  -0.45221  -0.44669  -0.44378  -0.43836
 Alpha  occ. eigenvalues --   -0.43090  -0.42280  -0.41912  -0.41797  -0.41684
 Alpha  occ. eigenvalues --   -0.41506  -0.40421  -0.40161  -0.39274  -0.38680
 Alpha  occ. eigenvalues --   -0.37195  -0.36756  -0.35050  -0.34860  -0.34543
 Alpha  occ. eigenvalues --   -0.33482  -0.33319  -0.32975  -0.32497  -0.31974
 Alpha  occ. eigenvalues --   -0.30669  -0.28929
 Alpha virt. eigenvalues --   -0.14110  -0.12882  -0.11765  -0.10559  -0.07406
 Alpha virt. eigenvalues --   -0.06348  -0.06096  -0.04674  -0.04214  -0.03859
 Alpha virt. eigenvalues --   -0.02698  -0.02017  -0.01630  -0.01416  -0.00443

 Mulliken charges:
               1
     1  N   -0.749432
     2  H    0.416454
     3  H    0.427932
     4  H    0.406997
     5  C   -0.125791
     6  H    0.210975
     7  C    0.677300
     8  C   -0.381798
     9  H    0.197997
    10  H    0.224880
    11  O   -0.545345
    12  C    0.128989
    13  C   -0.180884
    14  H    0.142276
    15  C   -0.229226
    16  H    0.156937
    17  C   -0.121882
    18  H    0.168430
    19  C   -0.119268
    20  H    0.169891
    21  C   -0.123805
    22  H    0.171158
    23  N   -0.581652
    24  H    0.350152
    25  C   -0.066553
    26  H    0.186296
    27  C    0.643283
    28  C   -0.305828
    29  H    0.143329
    30  H    0.194367
    31  O   -0.568476
    32  C   -0.076115
    33  H    0.113150
    34  C   -0.445157
    35  H    0.159270
    36  H    0.160385
    37  H    0.140352
    38  C   -0.454385
    39  H    0.160405
    40  H    0.142836
    41  H    0.163603
    42  N   -0.617491
    43  H    0.366199
    44  C   -0.056739
    45  H    0.206385
    46  C    0.678761
    47  C   -0.362364
    48  H    0.176723
    49  H    0.172676
    50  O   -0.555510
    51  C    0.580766
    52  N   -0.761307
    53  H    0.339207
    54  H    0.351501
    55  O   -0.491072
    56  N   -0.633838
    57  H    0.364055
    58  C   -0.034860
    59  H    0.214115
    60  C    0.594740
    61  C   -0.296986
    62  H    0.184377
    63  H    0.179227
    64  O   -0.446868
    65  C   -0.273047
    66  H    0.151877
    67  H    0.141982
    68  C   -0.146138
    69  H    0.150040
    70  H    0.188106
    71  N   -0.595911
    72  H    0.322474
    73  N   -0.754853
    74  H    0.323762
    75  H    0.329511
    76  N   -0.694037
    77  H    0.267671
    78  C    0.616937
    79  O   -0.588630
    80  H    0.426512
 Sum of Mulliken charges =   1.00000

 Dipole moment (field-independent basis, Debye):
    X=            -18.5960    Y=             11.6946    Z=             13.3490  Tot=             25.7055
 Quadrupole moment (field-independent basis, Debye-Ang):
   XX=           -135.1350   YY=           -196.0259   ZZ=            -99.0032
   XY=            -14.1492   XZ=            -72.4478   YZ=              5.7779

 Normal termination of Gaussian 16 at Sun Jun 19 01:55:13 2022.
