 Gaussian 16, Revision C.01,
 Gaussian 16:  ES64L-G16RevC.01  3-Jul-2019

 -------------------------------------------------------------------
 # B3LYP/6-31G* guess=read geom=check nosymm integral(ultrafinegrid)
 -------------------------------------------------------------------

 ------------------------------------------------------
 Candidate Structure: Conf:883 Charge calc in gas phase
 ------------------------------------------------------
 Structure from the checkpoint file:  "conf-883.chk"
 Charge =  1 Multiplicity = 1

                          Input orientation:
 ---------------------------------------------------------------------
 Center     Atomic      Atomic             Coordinates (Angstroms)
 Number     Number       Type             X           Y           Z
 ---------------------------------------------------------------------
      1          7           0       -5.545416    2.226052    3.083261
      2          1           0       -6.460646    2.650062    2.915145
      3          1           0       -5.500361    1.221101    2.702728
      4          1           0       -5.371256    2.217652    4.092773
      5          6           0       -4.414131    2.877906    2.304995
      6          1           0       -4.881078    3.513743    1.547970
      7          6           0       -3.765399    1.645545    1.597644
      8          6           0       -3.513352    3.729803    3.225108
      9          1           0       -2.879873    3.068626    3.828146
     10          1           0       -4.168489    4.271919    3.921096
     11          8           0       -4.366848    0.560064    1.711091
     12          6           0       -2.665421    4.737355    2.468150
     13          6           0       -1.277460    4.586437    2.370327
     14          1           0       -0.788339    3.731100    2.828464
     15          6           0       -3.273029    5.853574    1.871664
     16          1           0       -4.348140    6.002267    1.960226
     17          6           0       -0.510026    5.527608    1.679181
     18          1           0        0.564122    5.390814    1.605085
     19          6           0       -2.507628    6.794374    1.186205
     20          1           0       -2.988806    7.658207    0.737144
     21          6           0       -1.122503    6.631390    1.088037
     22          1           0       -0.525394    7.365973    0.556011
     23          7           0       -2.647438    1.826923    0.913237
     24          1           0       -2.158504    2.722866    0.888175
     25          6           0       -1.974837    0.750245    0.167987
     26          1           0       -2.100980   -0.174739    0.735898
     27          6           0       -0.490633    1.168442    0.127088
     28          6           0       -2.604037    0.603781   -1.241035
     29          1           0       -3.690023    0.528844   -1.095192
     30          1           0       -2.407495    1.530374   -1.792460
     31          8           0       -0.193845    2.366641    0.206303
     32          6           0       -2.134650   -0.597046   -2.088115
     33          1           0       -1.046457   -0.544159   -2.210959
     34          6           0       -2.483062   -1.947728   -1.443374
     35          1           0       -3.566236   -2.048414   -1.296795
     36          1           0       -2.151941   -2.772616   -2.082323
     37          1           0       -2.004126   -2.092071   -0.466546
     38          6           0       -2.755016   -0.490556   -3.489982
     39          1           0       -3.851457   -0.524872   -3.445702
     40          1           0       -2.463751    0.446729   -3.977857
     41          1           0       -2.422488   -1.318924   -4.124583
     42          7           0        0.398374    0.161561    0.034268
     43          1           0        0.073146   -0.759001   -0.257424
     44          6           0        1.815444    0.366534   -0.254540
     45          1           0        1.962273    1.401208   -0.573840
     46          6           0        2.137616   -0.572673   -1.444921
     47          6           0        2.674379    0.093239    0.999763
     48          1           0        2.154731    0.513206    1.869723
     49          1           0        2.763473   -0.986195    1.180040
     50          8           0        1.325351   -1.441549   -1.782548
     51          6           0        4.068950    0.720759    0.925730
     52          7           0        4.816704    0.591845    2.052514
     53          1           0        5.765916    0.939954    2.036978
     54          1           0        4.523082    0.035257    2.841361
     55          8           0        4.477742    1.326386   -0.061077
     56          7           0        3.313319   -0.349648   -2.053794
     57          1           0        3.894136    0.402147   -1.683645
     58          6           0        3.634274   -0.967282   -3.334890
     59          1           0        3.172497   -1.961870   -3.329503
     60          6           0        5.131927   -1.193167   -3.513872
     61          6           0        3.040110   -0.161395   -4.512526
     62          1           0        1.954271   -0.168009   -4.361575
     63          1           0        3.245977   -0.703856   -5.441100
     64          8           0        5.649430   -1.416840   -4.583909
     65          6           0        3.562526    1.281758   -4.587607
     66          1           0        3.741401    1.677089   -3.584364
     67          1           0        4.519133    1.303059   -5.124233
     68          6           0        2.606347    2.272080   -5.275684
     69          1           0        3.062259    3.266900   -5.253000
     70          1           0        2.456427    2.004361   -6.327925
     71          7           0        1.271747    2.384398   -4.686223
     72          1           0        0.577850    1.726007   -5.012923
     73          7           0       -0.308743    2.860124   -3.064833
     74          1           0       -0.471223    3.269869   -2.151120
     75          1           0       -0.893141    3.292020   -3.775108
     76          7           0        2.041061    3.211521   -2.648127
     77          1           0        1.690524    3.658024   -1.799607
     78          6           0        1.064861    2.852865   -3.406233
     79          8           0        5.824209   -1.148685   -2.352883
     80          1           0        6.756708   -1.315258   -2.590820
 ---------------------------------------------------------------------

 SCF Done:  E(RB3LYP) =  -1866.58753073     A.U. after    3 cycles

 Alpha  occ. eigenvalues --  -19.27300 -19.25710 -19.22123 -19.19956 -19.19648
 Alpha  occ. eigenvalues --  -19.19228 -14.60121 -14.49736 -14.45452 -14.43981
 Alpha  occ. eigenvalues --  -14.42386 -14.41020 -14.40382 -14.34336 -10.44024
 Alpha  occ. eigenvalues --  -10.41445 -10.39162 -10.37998 -10.37744 -10.36162
 Alpha  occ. eigenvalues --  -10.34811 -10.34285 -10.33957 -10.31720 -10.31631
 Alpha  occ. eigenvalues --  -10.30099 -10.30006 -10.29799 -10.29421 -10.29152
 Alpha  occ. eigenvalues --  -10.29079 -10.28877 -10.27836 -10.26846 -10.26575
 Alpha  occ. eigenvalues --  -10.24747 -10.24384 -10.24184 -10.22642  -1.19748
 Alpha  occ. eigenvalues --   -1.16526  -1.14168  -1.13662  -1.11782  -1.10878
 Alpha  occ. eigenvalues --   -1.07397  -1.06185  -1.03245  -1.02010  -0.99536
 Alpha  occ. eigenvalues --   -0.98712  -0.97218  -0.94372  -0.93247  -0.90070
 Alpha  occ. eigenvalues --   -0.89842  -0.87286  -0.86485  -0.85046  -0.84695
 Alpha  occ. eigenvalues --   -0.83768  -0.80231  -0.79972  -0.77055  -0.75658
 Alpha  occ. eigenvalues --   -0.75253  -0.74836  -0.73521  -0.72923  -0.71210
 Alpha  occ. eigenvalues --   -0.70993  -0.68814  -0.68540  -0.68356  -0.67435
 Alpha  occ. eigenvalues --   -0.66682  -0.65322  -0.64704  -0.64248  -0.63407
 Alpha  occ. eigenvalues --   -0.62468  -0.61703  -0.61688  -0.61052  -0.59904
 Alpha  occ. eigenvalues --   -0.59440  -0.58577  -0.57827  -0.57722  -0.57283
 Alpha  occ. eigenvalues --   -0.57009  -0.56275  -0.55825  -0.55201  -0.54354
 Alpha  occ. eigenvalues --   -0.54173  -0.53506  -0.53181  -0.52860  -0.52758
 Alpha  occ. eigenvalues --   -0.52361  -0.52037  -0.51684  -0.51295  -0.51170
 Alpha  occ. eigenvalues --   -0.50841  -0.50488  -0.50277  -0.49690  -0.48972
 Alpha  occ. eigenvalues --   -0.48719  -0.48424  -0.47876  -0.47051  -0.46518
 Alpha  occ. eigenvalues --   -0.46359  -0.46061  -0.45609  -0.45332  -0.45120
 Alpha  occ. eigenvalues --   -0.44804  -0.44708  -0.44380  -0.44193  -0.43479
 Alpha  occ. eigenvalues --   -0.43228  -0.42480  -0.41706  -0.40579  -0.40339
 Alpha  occ. eigenvalues --   -0.39871  -0.39240  -0.38512  -0.38466  -0.37546
 Alpha  occ. eigenvalues --   -0.36356  -0.35909  -0.35464  -0.35324  -0.35159
 Alpha  occ. eigenvalues --   -0.33978  -0.33689  -0.33274  -0.32857  -0.31624
 Alpha  occ. eigenvalues --   -0.30935  -0.28295
 Alpha virt. eigenvalues --   -0.13322  -0.11741  -0.10947  -0.10583  -0.08084
 Alpha virt. eigenvalues --   -0.06504  -0.05816  -0.05433  -0.04767  -0.04239
 Alpha virt. eigenvalues --   -0.02107  -0.01575  -0.01036  -0.00705  -0.00075

 Mulliken charges:
               1
     1  N   -0.765362
     2  H    0.414503
     3  H    0.439585
     4  H    0.412314
     5  C   -0.101965
     6  H    0.228599
     7  C    0.647279
     8  C   -0.386295
     9  H    0.186696
    10  H    0.182308
    11  O   -0.549275
    12  C    0.137332
    13  C   -0.184185
    14  H    0.147013
    15  C   -0.180763
    16  H    0.126396
    17  C   -0.112440
    18  H    0.167246
    19  C   -0.124648
    20  H    0.160725
    21  C   -0.127655
    22  H    0.164850
    23  N   -0.613065
    24  H    0.390259
    25  C   -0.080460
    26  H    0.190465
    27  C    0.627176
    28  C   -0.254402
    29  H    0.147659
    30  H    0.156502
    31  O   -0.559485
    32  C   -0.101995
    33  H    0.167556
    34  C   -0.450673
    35  H    0.146495
    36  H    0.170848
    37  H    0.130012
    38  C   -0.450341
    39  H    0.141189
    40  H    0.143846
    41  H    0.160516
    42  N   -0.608673
    43  H    0.370403
    44  C   -0.086256
    45  H    0.227459
    46  C    0.619105
    47  C   -0.377051
    48  H    0.178701
    49  H    0.185358
    50  O   -0.549456
    51  C    0.625995
    52  N   -0.745489
    53  H    0.359329
    54  H    0.346810
    55  O   -0.507932
    56  N   -0.613004
    57  H    0.403155
    58  C   -0.067017
    59  H    0.209166
    60  C    0.591651
    61  C   -0.259899
    62  H    0.139039
    63  H    0.167887
    64  O   -0.457251
    65  C   -0.290740
    66  H    0.184450
    67  H    0.153468
    68  C   -0.130638
    69  H    0.172634
    70  H    0.144070
    71  N   -0.590576
    72  H    0.323814
    73  N   -0.779712
    74  H    0.328215
    75  H    0.324194
    76  N   -0.644928
    77  H    0.273660
    78  C    0.581990
    79  O   -0.564650
    80  H    0.418360
 Sum of Mulliken charges =   1.00000

 Dipole moment (field-independent basis, Debye):
    X=            -15.5026    Y=             11.9395    Z=             12.1722  Tot=             23.0444
 Quadrupole moment (field-independent basis, Debye-Ang):
   XX=           -102.1527   YY=           -182.3754   ZZ=           -175.6973
   XY=            -63.8512   XZ=            -30.2347   YZ=             21.7276

 Normal termination of Gaussian 16 at Sun Jun 19 01:55:57 2022.
