 Gaussian 16, Revision C.01,
 Gaussian 16:  ES64L-G16RevC.01  3-Jul-2019

 -------------------------------------------------------------------
 # B3LYP/6-31G* guess=read geom=check nosymm integral(ultrafinegrid)
 -------------------------------------------------------------------

 ------------------------------------------------------
 Candidate Structure: Conf:950 Charge calc in gas phase
 ------------------------------------------------------
 Structure from the checkpoint file:  "conf-950.chk"
 Charge =  1 Multiplicity = 1

                          Input orientation:
 ---------------------------------------------------------------------
 Center     Atomic      Atomic             Coordinates (Angstroms)
 Number     Number       Type             X           Y           Z
 ---------------------------------------------------------------------
      1          7           0       -5.326082    2.239330    3.714890
      2          1           0       -6.146350    2.550842    3.187576
      3          1           0       -5.355844    1.184903    3.782910
      4          1           0       -5.329101    2.703528    4.635732
      5          6           0       -4.027428    2.482864    2.981972
      6          1           0       -4.192796    3.276431    2.250621
      7          6           0       -3.734298    1.112011    2.317317
      8          6           0       -2.921956    2.883743    3.991035
      9          1           0       -2.025786    3.121648    3.407785
     10          1           0       -2.675699    2.007808    4.603267
     11          8           0       -4.349130    0.128427    2.756601
     12          6           0       -3.335860    4.045872    4.869659
     13          6           0       -3.315564    5.361142    4.381662
     14          1           0       -2.940303    5.561907    3.380320
     15          6           0       -3.802075    3.813405    6.174067
     16          1           0       -3.774321    2.806020    6.587675
     17          6           0       -3.749998    6.418127    5.179959
     18          1           0       -3.715815    7.433106    4.795175
     19          6           0       -4.242869    4.874232    6.972529
     20          1           0       -4.586738    4.681004    7.984329
     21          6           0       -4.219300    6.176302    6.474820
     22          1           0       -4.553178    7.002574    7.095053
     23          7           0       -2.821969    1.118793    1.353686
     24          1           0       -2.262538    1.954739    1.164382
     25          6           0       -2.203280   -0.065752    0.748737
     26          1           0       -2.285832   -0.898601    1.452661
     27          6           0       -0.726156    0.341487    0.555993
     28          6           0       -2.829296   -0.436117   -0.615827
     29          1           0       -2.752099    0.445550   -1.264888
     30          1           0       -2.194901   -1.203483   -1.077180
     31          8           0       -0.399572    1.531784    0.608914
     32          6           0       -4.286050   -0.938308   -0.577344
     33          1           0       -4.898865   -0.183397   -0.062197
     34          6           0       -4.815449   -1.069756   -2.014247
     35          1           0       -4.236034   -1.810674   -2.578790
     36          1           0       -5.861708   -1.394980   -2.017176
     37          1           0       -4.755906   -0.118062   -2.555367
     38          6           0       -4.428274   -2.266721    0.180726
     39          1           0       -3.795498   -3.043018   -0.267770
     40          1           0       -4.160008   -2.170342    1.237823
     41          1           0       -5.464120   -2.622079    0.141367
     42          7           0        0.129176   -0.667209    0.317940
     43          1           0       -0.212295   -1.617200    0.150610
     44          6           0        1.460723   -0.413831   -0.199261
     45          1           0        1.984673    0.268597    0.479219
     46          6           0        1.394321    0.219246   -1.609964
     47          6           0        2.241659   -1.749326   -0.284473
     48          1           0        3.235269   -1.562349   -0.699127
     49          1           0        2.363668   -2.150636    0.727046
     50          8           0        0.435760    0.063228   -2.350583
     51          6           0        1.480166   -2.798000   -1.099985
     52          7           0        2.088011   -3.235957   -2.223846
     53          1           0        1.562748   -3.865955   -2.816862
     54          1           0        2.860350   -2.723781   -2.635800
     55          8           0        0.384219   -3.217474   -0.715323
     56          7           0        2.522727    0.906636   -1.966995
     57          1           0        3.313761    0.881338   -1.335077
     58          6           0        2.820161    1.210036   -3.353930
     59          1           0        1.858474    1.333149   -3.863902
     60          6           0        3.509887    0.007439   -4.010845
     61          6           0        3.650508    2.503128   -3.483277
     62          1           0        3.988235    2.597513   -4.520469
     63          1           0        4.551391    2.419139   -2.861193
     64          8           0        3.802241   -1.029977   -3.447444
     65          6           0        2.863980    3.754959   -3.072863
     66          1           0        2.089918    3.967154   -3.821545
     67          1           0        2.335545    3.567319   -2.128382
     68          6           0        3.748899    4.995759   -2.913231
     69          1           0        4.329282    5.163045   -3.825775
     70          1           0        3.112415    5.884868   -2.779031
     71          7           0        4.675580    4.816282   -1.787528
     72          1           0        4.178288    4.655114   -0.915195
     73          7           0        6.379195    6.181165   -2.643955
     74          1           0        7.201435    6.733625   -2.434914
     75          1           0        6.580194    5.442745   -3.309314
     76          7           0        5.791865    6.194645   -0.310389
     77          1           0        6.616765    6.789445   -0.209197
     78          6           0        5.660116    5.778597   -1.516740
     79          8           0        3.757802    0.226454   -5.312336
     80          1           0        4.187591   -0.575142   -5.668063
 ---------------------------------------------------------------------

 SCF Done:  E(RB3LYP) =  -1866.59747923     A.U. after    1 cycles

 Alpha  occ. eigenvalues --  -19.28632 -19.25906 -19.23431 -19.21242 -19.19901
 Alpha  occ. eigenvalues --  -19.19142 -14.59152 -14.48476 -14.44480 -14.44096
 Alpha  occ. eigenvalues --  -14.42774 -14.40107 -14.39496 -14.33524 -10.42753
 Alpha  occ. eigenvalues --  -10.41162 -10.40230 -10.37952 -10.36957 -10.36889
 Alpha  occ. eigenvalues --  -10.33770 -10.33256 -10.33004 -10.32626 -10.32219
 Alpha  occ. eigenvalues --  -10.32063 -10.30811 -10.30446 -10.30153 -10.30038
 Alpha  occ. eigenvalues --  -10.29780 -10.28539 -10.28005 -10.26804 -10.26802
 Alpha  occ. eigenvalues --  -10.26461 -10.25737 -10.23954 -10.23830  -1.19727
 Alpha  occ. eigenvalues --   -1.18308  -1.13442  -1.12973  -1.11806  -1.10746
 Alpha  occ. eigenvalues --   -1.10611  -1.05146  -1.02515  -1.01330  -1.01204
 Alpha  occ. eigenvalues --   -0.97789  -0.97449  -0.94003  -0.92891  -0.89652
 Alpha  occ. eigenvalues --   -0.89455  -0.87974  -0.86576  -0.86061  -0.85697
 Alpha  occ. eigenvalues --   -0.83272  -0.81521  -0.79147  -0.76214  -0.74909
 Alpha  occ. eigenvalues --   -0.74371  -0.74181  -0.73382  -0.72868  -0.71613
 Alpha  occ. eigenvalues --   -0.71381  -0.69983  -0.69471  -0.67553  -0.67263
 Alpha  occ. eigenvalues --   -0.66659  -0.66078  -0.65130  -0.65019  -0.63284
 Alpha  occ. eigenvalues --   -0.62576  -0.62194  -0.61715  -0.60805  -0.58733
 Alpha  occ. eigenvalues --   -0.58398  -0.58047  -0.57878  -0.57338  -0.57215
 Alpha  occ. eigenvalues --   -0.56705  -0.56501  -0.56466  -0.56140  -0.55171
 Alpha  occ. eigenvalues --   -0.54922  -0.54391  -0.53545  -0.53193  -0.52818
 Alpha  occ. eigenvalues --   -0.52654  -0.52217  -0.51668  -0.51484  -0.50863
 Alpha  occ. eigenvalues --   -0.50742  -0.50384  -0.50071  -0.49540  -0.49187
 Alpha  occ. eigenvalues --   -0.48831  -0.48343  -0.47556  -0.47306  -0.47214
 Alpha  occ. eigenvalues --   -0.46794  -0.46630  -0.46199  -0.45578  -0.45416
 Alpha  occ. eigenvalues --   -0.45288  -0.45084  -0.44798  -0.44349  -0.43772
 Alpha  occ. eigenvalues --   -0.43397  -0.42031  -0.41546  -0.41066  -0.40770
 Alpha  occ. eigenvalues --   -0.40687  -0.40421  -0.39914  -0.39675  -0.37944
 Alpha  occ. eigenvalues --   -0.36870  -0.36515  -0.36037  -0.35551  -0.34998
 Alpha  occ. eigenvalues --   -0.34385  -0.34261  -0.33151  -0.32576  -0.31463
 Alpha  occ. eigenvalues --   -0.30962  -0.27848
 Alpha virt. eigenvalues --   -0.12760  -0.12187  -0.10492  -0.09519  -0.08314
 Alpha virt. eigenvalues --   -0.06943  -0.05999  -0.05462  -0.04291  -0.02357
 Alpha virt. eigenvalues --   -0.01560  -0.00928  -0.00724  -0.00470  -0.00384

 Mulliken charges:
               1
     1  N   -0.750816
     2  H    0.414781
     3  H    0.426870
     4  H    0.404003
     5  C   -0.113942
     6  H    0.212438
     7  C    0.654972
     8  C   -0.387809
     9  H    0.213624
    10  H    0.194005
    11  O   -0.540729
    12  C    0.139462
    13  C   -0.180964
    14  H    0.147371
    15  C   -0.230021
    16  H    0.150814
    17  C   -0.122371
    18  H    0.167511
    19  C   -0.120259
    20  H    0.167080
    21  C   -0.123743
    22  H    0.168940
    23  N   -0.593000
    24  H    0.367497
    25  C   -0.099178
    26  H    0.194776
    27  C    0.647695
    28  C   -0.258474
    29  H    0.154731
    30  H    0.179027
    31  O   -0.557414
    32  C   -0.070198
    33  H    0.110133
    34  C   -0.445850
    35  H    0.156635
    36  H    0.150989
    37  H    0.143591
    38  C   -0.460972
    39  H    0.155487
    40  H    0.155898
    41  H    0.151859
    42  N   -0.618759
    43  H    0.389740
    44  C   -0.079303
    45  H    0.177149
    46  C    0.645871
    47  C   -0.383406
    48  H    0.174487
    49  H    0.199820
    50  O   -0.517312
    51  C    0.604456
    52  N   -0.751115
    53  H    0.350003
    54  H    0.390047
    55  O   -0.530794
    56  N   -0.589927
    57  H    0.336362
    58  C   -0.063211
    59  H    0.215525
    60  C    0.602049
    61  C   -0.285928
    62  H    0.173055
    63  H    0.161467
    64  O   -0.488865
    65  C   -0.280855
    66  H    0.151014
    67  H    0.153064
    68  C   -0.129797
    69  H    0.153500
    70  H    0.150302
    71  N   -0.591410
    72  H    0.321729
    73  N   -0.737587
    74  H    0.328834
    75  H    0.326261
    76  N   -0.635960
    77  H    0.269720
    78  C    0.557094
    79  O   -0.547334
    80  H    0.425565
 Sum of Mulliken charges =   1.00000

 Dipole moment (field-independent basis, Debye):
    X=             -9.8259    Y=             11.9714    Z=              7.2465  Tot=             17.0989
 Quadrupole moment (field-independent basis, Debye-Ang):
   XX=            -89.7477   YY=           -175.1739   ZZ=           -127.8034
   XY=            -47.9811   XZ=           -108.1066   YZ=             44.2888

 Normal termination of Gaussian 16 at Sun Jun 19 01:55:10 2022.
