 Gaussian 16, Revision C.01,
 Gaussian 16:  ES64L-G16RevC.01  3-Jul-2019

 -------------------------------------------------------------------
 # B3LYP/6-31G* guess=read geom=check nosymm integral(ultrafinegrid)
 -------------------------------------------------------------------

 ------------------------------------------------------
 Candidate Structure: Conf:231 Charge calc in gas phase
 ------------------------------------------------------
 Structure from the checkpoint file:  "conf-231.chk"
 Charge =  1 Multiplicity = 1

                          Input orientation:
 ---------------------------------------------------------------------
 Center     Atomic      Atomic             Coordinates (Angstroms)
 Number     Number       Type             X           Y           Z
 ---------------------------------------------------------------------
      1          7           0       -4.978916    2.862919    3.130857
      2          1           0       -5.561706    3.506753    2.587365
      3          1           0       -5.224405    1.866462    2.851514
      4          1           0       -5.148948    3.026865    4.127529
      5          6           0       -3.506949    2.922764    2.759567
      6          1           0       -3.300098    3.896518    2.311404
      7          6           0       -3.385450    1.759169    1.740554
      8          6           0       -2.657578    2.702271    4.034949
      9          1           0       -2.950751    1.743423    4.480217
     10          1           0       -2.923437    3.493922    4.749961
     11          8           0       -4.256376    0.874237    1.796383
     12          6           0       -1.163946    2.715801    3.776700
     13          6           0       -0.416662    1.534055    3.868678
     14          1           0       -0.912028    0.603541    4.138244
     15          6           0       -0.511066    3.913295    3.450165
     16          1           0       -1.070046    4.846831    3.403916
     17          6           0        0.960761    1.542311    3.637098
     18          1           0        1.543214    0.626739    3.705751
     19          6           0        0.863404    3.923700    3.210554
     20          1           0        1.360065    4.857466    2.963742
     21          6           0        1.597827    2.739558    3.302901
     22          1           0        2.668979    2.745179    3.124799
     23          7           0       -2.354660    1.787375    0.907023
     24          1           0       -1.655214    2.527365    0.951732
     25          6           0       -1.982436    0.667326    0.025771
     26          1           0       -2.311499   -0.252038    0.516423
     27          6           0       -0.447800    0.753776   -0.027431
     28          6           0       -2.638473    0.797590   -1.365909
     29          1           0       -3.718663    0.907520   -1.200606
     30          1           0       -2.277171    1.719591   -1.837329
     31          8           0        0.094906    1.863589   -0.072331
     32          6           0       -2.395198   -0.387913   -2.324174
     33          1           0       -1.311271   -0.473332   -2.492214
     34          6           0       -2.906636   -1.726938   -1.768252
     35          1           0       -3.979487   -1.674845   -1.543634
     36          1           0       -2.760780   -2.527672   -2.501002
     37          1           0       -2.396195   -2.040960   -0.847655
     38          6           0       -3.051476   -0.079471   -3.679376
     39          1           0       -4.143272   -0.021859   -3.576780
     40          1           0       -2.694501    0.875043   -4.080319
     41          1           0       -2.831502   -0.870847   -4.404772
     42          7           0        0.245072   -0.400985    0.026186
     43          1           0       -0.251314   -1.282875    0.028691
     44          6           0        1.696217   -0.419761    0.263690
     45          1           0        1.911046    0.494017    0.827603
     46          6           0        2.506312   -0.367740   -1.056562
     47          6           0        2.078053   -1.643299    1.106535
     48          1           0        1.311734   -1.804432    1.869530
     49          1           0        2.149262   -2.528392    0.468199
     50          8           0        3.238692   -1.291608   -1.405633
     51          6           0        3.384643   -1.382575    1.866433
     52          7           0        4.502045   -1.869470    1.271496
     53          1           0        5.394692   -1.620010    1.677368
     54          1           0        4.469392   -2.107030    0.286392
     55          8           0        3.382145   -0.772720    2.932017
     56          7           0        2.335670    0.770499   -1.771035
     57          1           0        1.778702    1.514095   -1.357947
     58          6           0        3.083882    1.024737   -2.989930
     59          1           0        3.237540    0.057026   -3.478671
     60          6           0        4.493218    1.581318   -2.748240
     61          6           0        2.327247    1.960989   -3.952109
     62          1           0        2.972347    2.091005   -4.828538
     63          1           0        2.225497    2.951378   -3.486346
     64          8           0        5.277074    1.796465   -3.643570
     65          6           0        0.949328    1.433492   -4.368519
     66          1           0        1.039925    0.385892   -4.689036
     67          1           0        0.260426    1.452187   -3.518204
     68          6           0        0.320147    2.222661   -5.528930
     69          1           0        0.949659    2.131438   -6.422601
     70          1           0       -0.656916    1.795215   -5.767748
     71          7           0        0.120363    3.645780   -5.292871
     72          1           0        0.939499    4.236722   -5.331397
     73          7           0       -0.918319    5.534761   -4.479027
     74          1           0       -1.759744    5.935186   -4.083342
     75          1           0       -0.660295    6.001619   -5.342575
     76          7           0       -1.797533    3.345794   -4.007720
     77          1           0       -2.587213    3.883167   -3.647110
     78          6           0       -0.935821    4.134824   -4.557582
     79          8           0        4.766766    1.826511   -1.447386
     80          1           0        5.681401    2.168721   -1.427999
 ---------------------------------------------------------------------

 SCF Done:  E(RB3LYP) =  -1866.58636328     A.U. after    1 cycles

 Alpha  occ. eigenvalues --  -19.27153 -19.26818 -19.23220 -19.20646 -19.20277
 Alpha  occ. eigenvalues --  -19.18412 -14.60877 -14.50055 -14.47729 -14.43989
 Alpha  occ. eigenvalues --  -14.42044 -14.41886 -14.41657 -14.35706 -10.43948
 Alpha  occ. eigenvalues --  -10.41479 -10.40198 -10.38877 -10.37257 -10.36175
 Alpha  occ. eigenvalues --  -10.35334 -10.34889 -10.34547 -10.33206 -10.31375
 Alpha  occ. eigenvalues --  -10.30894 -10.29402 -10.29047 -10.28626 -10.28335
 Alpha  occ. eigenvalues --  -10.28117 -10.27925 -10.27841 -10.27752 -10.27311
 Alpha  occ. eigenvalues --  -10.26600 -10.25663 -10.25217 -10.23720  -1.19684
 Alpha  occ. eigenvalues --   -1.17558  -1.15287  -1.14450  -1.11968  -1.09991
 Alpha  occ. eigenvalues --   -1.08432  -1.06510  -1.04596  -1.03695  -1.00730
 Alpha  occ. eigenvalues --   -0.97089  -0.96645  -0.95666  -0.93029  -0.91107
 Alpha  occ. eigenvalues --   -0.90483  -0.87978  -0.86596  -0.86074  -0.84176
 Alpha  occ. eigenvalues --   -0.83970  -0.81523  -0.79817  -0.76990  -0.75972
 Alpha  occ. eigenvalues --   -0.75232  -0.74596  -0.74419  -0.73722  -0.72152
 Alpha  occ. eigenvalues --   -0.70503  -0.70162  -0.69076  -0.68307  -0.67769
 Alpha  occ. eigenvalues --   -0.67207  -0.66730  -0.64965  -0.64756  -0.64270
 Alpha  occ. eigenvalues --   -0.63467  -0.62049  -0.60945  -0.60843  -0.60550
 Alpha  occ. eigenvalues --   -0.59725  -0.59461  -0.58860  -0.58361  -0.58033
 Alpha  occ. eigenvalues --   -0.57308  -0.56770  -0.55838  -0.55536  -0.55462
 Alpha  occ. eigenvalues --   -0.54512  -0.53969  -0.53651  -0.53330  -0.52748
 Alpha  occ. eigenvalues --   -0.52550  -0.51829  -0.51728  -0.51453  -0.51216
 Alpha  occ. eigenvalues --   -0.50933  -0.50673  -0.50423  -0.50023  -0.49769
 Alpha  occ. eigenvalues --   -0.49265  -0.48868  -0.48125  -0.47549  -0.47083
 Alpha  occ. eigenvalues --   -0.46701  -0.46096  -0.45769  -0.45614  -0.45412
 Alpha  occ. eigenvalues --   -0.45175  -0.44659  -0.44378  -0.44237  -0.44059
 Alpha  occ. eigenvalues --   -0.43631  -0.42529  -0.42162  -0.41661  -0.41466
 Alpha  occ. eigenvalues --   -0.40991  -0.40682  -0.40320  -0.38890  -0.38427
 Alpha  occ. eigenvalues --   -0.37944  -0.37119  -0.36541  -0.34757  -0.34599
 Alpha  occ. eigenvalues --   -0.33796  -0.33700  -0.33298  -0.32497  -0.32241
 Alpha  occ. eigenvalues --   -0.32020  -0.29475
 Alpha virt. eigenvalues --   -0.13108  -0.11733  -0.11028  -0.10133  -0.09195
 Alpha virt. eigenvalues --   -0.07107  -0.06527  -0.05946  -0.04878  -0.03609
 Alpha virt. eigenvalues --   -0.02886  -0.02172  -0.02013  -0.01350  -0.01021

 Mulliken charges:
               1
     1  N   -0.754012
     2  H    0.417247
     3  H    0.433099
     4  H    0.414861
     5  C   -0.112970
     6  H    0.212942
     7  C    0.658034
     8  C   -0.381532
     9  H    0.185766
    10  H    0.183230
    11  O   -0.546766
    12  C    0.154872
    13  C   -0.192255
    14  H    0.138094
    15  C   -0.197972
    16  H    0.126541
    17  C   -0.145150
    18  H    0.202297
    19  C   -0.116503
    20  H    0.155898
    21  C   -0.128497
    22  H    0.165821
    23  N   -0.599844
    24  H    0.379361
    25  C   -0.056375
    26  H    0.181663
    27  C    0.635739
    28  C   -0.275666
    29  H    0.146948
    30  H    0.192634
    31  O   -0.554247
    32  C   -0.089315
    33  H    0.134908
    34  C   -0.452148
    35  H    0.155926
    36  H    0.167229
    37  H    0.115165
    38  C   -0.476862
    39  H    0.137692
    40  H    0.202760
    41  H    0.148376
    42  N   -0.607580
    43  H    0.353167
    44  C   -0.079868
    45  H    0.212044
    46  C    0.641536
    47  C   -0.376458
    48  H    0.167879
    49  H    0.185495
    50  O   -0.532024
    51  C    0.566941
    52  N   -0.727299
    53  H    0.346368
    54  H    0.374491
    55  O   -0.504571
    56  N   -0.613497
    57  H    0.371089
    58  C   -0.044391
    59  H    0.209562
    60  C    0.596603
    61  C   -0.303427
    62  H    0.177708
    63  H    0.144586
    64  O   -0.453681
    65  C   -0.267940
    66  H    0.141077
    67  H    0.168611
    68  C   -0.133407
    69  H    0.151260
    70  H    0.181242
    71  N   -0.593872
    72  H    0.327833
    73  N   -0.756776
    74  H    0.321360
    75  H    0.332245
    76  N   -0.664773
    77  H    0.260600
    78  C    0.610158
    79  O   -0.567776
    80  H    0.418495
 Sum of Mulliken charges =   1.00000

 Dipole moment (field-independent basis, Debye):
    X=            -14.6541    Y=             14.9237    Z=              6.5451  Tot=             21.9157
 Quadrupole moment (field-independent basis, Debye-Ang):
   XX=           -140.1437   YY=           -153.0698   ZZ=           -178.8319
   XY=            -53.2350   XZ=            -46.3414   YZ=             14.4953

 Normal termination of Gaussian 16 at Sun Jun 19 01:55:25 2022.
