 Gaussian 16, Revision C.01,
 Gaussian 16:  ES64L-G16RevC.01  3-Jul-2019

 -------------------------------------------------------------------
 # B3LYP/6-31G* guess=read geom=check nosymm integral(ultrafinegrid)
 -------------------------------------------------------------------

 ------------------------------------------------------
 Candidate Structure: Conf:496 Charge calc in gas phase
 ------------------------------------------------------
 Structure from the checkpoint file:  "conf-496.chk"
 Charge =  1 Multiplicity = 1

                          Input orientation:
 ---------------------------------------------------------------------
 Center     Atomic      Atomic             Coordinates (Angstroms)
 Number     Number       Type             X           Y           Z
 ---------------------------------------------------------------------
      1          7           0       -6.166111    0.675787    2.104654
      2          1           0       -6.602293    1.589859    2.255277
      3          1           0       -6.001761    0.539712    1.054719
      4          1           0       -6.779967   -0.048201    2.488442
      5          6           0       -4.742981    0.594024    2.628025
      6          1           0       -4.587599    1.412285    3.333891
      7          6           0       -3.915340    0.790390    1.324551
      8          6           0       -4.523372   -0.773117    3.314736
      9          1           0       -4.676266   -1.565861    2.572288
     10          1           0       -5.301231   -0.887843    4.083098
     11          8           0       -4.524862    0.632841    0.250192
     12          6           0       -3.155052   -0.911898    3.952400
     13          6           0       -2.205844   -1.790760    3.417312
     14          1           0       -2.449701   -2.378935    2.535787
     15          6           0       -2.830059   -0.172134    5.098998
     16          1           0       -3.564993    0.495951    5.545121
     17          6           0       -0.954030   -1.930663    4.018524
     18          1           0       -0.232568   -2.628013    3.602800
     19          6           0       -1.576097   -0.304740    5.694427
     20          1           0       -1.338538    0.269082    6.585188
     21          6           0       -0.636598   -1.186140    5.155165
     22          1           0        0.335110   -1.299113    5.626642
     23          7           0       -2.637560    1.106740    1.451010
     24          1           0       -2.179454    1.193062    2.360262
     25          6           0       -1.720665    1.306238    0.319869
     26          1           0       -1.898348    0.513285   -0.411921
     27          6           0       -0.319262    1.177310    0.945181
     28          6           0       -1.951533    2.693622   -0.333225
     29          1           0       -3.024768    2.764540   -0.551038
     30          1           0       -1.722103    3.458417    0.420602
     31          8           0       -0.157595    1.399629    2.150505
     32          6           0       -1.170881    2.985287   -1.632220
     33          1           0       -0.095150    2.915743   -1.420394
     34          6           0       -1.501041    2.002544   -2.767409
     35          1           0       -2.577618    2.005237   -2.983860
     36          1           0       -0.967288    2.296273   -3.677627
     37          1           0       -1.217093    0.967216   -2.534652
     38          6           0       -1.450286    4.428123   -2.082050
     39          1           0       -2.513915    4.566439   -2.317215
     40          1           0       -1.181271    5.152805   -1.303598
     41          1           0       -0.871837    4.652419   -2.983581
     42          7           0        0.674077    0.831463    0.110406
     43          1           0        0.529401    0.694553   -0.888430
     44          6           0        2.073197    0.812683    0.508131
     45          1           0        2.271713    1.700359    1.118192
     46          6           0        2.874518    0.899747   -0.808904
     47          6           0        2.397514   -0.463003    1.328533
     48          1           0        1.700942   -0.484116    2.175762
     49          1           0        2.223765   -1.352527    0.718597
     50          8           0        2.309672    0.695133   -1.887189
     51          6           0        3.828831   -0.552341    1.854267
     52          7           0        4.290354    0.586793    2.497108
     53          1           0        5.172900    0.468011    2.982576
     54          1           0        3.625568    1.194998    2.960674
     55          8           0        4.534165   -1.527045    1.677999
     56          7           0        4.181821    1.211196   -0.706974
     57          1           0        4.619208    1.317935    0.202447
     58          6           0        5.008827    1.240512   -1.914235
     59          1           0        4.788166    0.325239   -2.477700
     60          6           0        6.494777    1.183599   -1.599373
     61          6           0        4.682319    2.455514   -2.829906
     62          1           0        5.416943    3.254418   -2.675605
     63          1           0        3.713678    2.849902   -2.517109
     64          8           0        7.350672    1.226732   -2.450278
     65          6           0        4.615482    2.076752   -4.315892
     66          1           0        5.621147    1.875335   -4.700018
     67          1           0        4.042565    1.144605   -4.419998
     68          6           0        3.947903    3.148065   -5.182642
     69          1           0        4.530284    4.078701   -5.118491
     70          1           0        3.965821    2.830448   -6.235212
     71          7           0        2.582662    3.391828   -4.712404
     72          1           0        2.140404    2.595480   -4.265894
     73          7           0        2.192973    5.048627   -6.315040
     74          1           0        1.536843    5.737953   -6.657985
     75          1           0        3.078741    5.460853   -6.048526
     76          7           0        0.393991    3.864539   -5.263614
     77          1           0       -0.185204    4.512122   -5.799410
     78          6           0        1.648672    4.117893   -5.433072
     79          8           0        6.765277    1.090294   -0.275234
     80          1           0        7.737234    1.045700   -0.191324
 ---------------------------------------------------------------------

 SCF Done:  E(RB3LYP) =  -1866.57829454     A.U. after    1 cycles

 Alpha  occ. eigenvalues --  -19.27704 -19.26805 -19.22045 -19.21299 -19.20943
 Alpha  occ. eigenvalues --  -19.19819 -14.60152 -14.49368 -14.45754 -14.44733
 Alpha  occ. eigenvalues --  -14.44104 -14.40258 -14.39418 -14.33288 -10.43509
 Alpha  occ. eigenvalues --  -10.41151 -10.39818 -10.39065 -10.37930 -10.37428
 Alpha  occ. eigenvalues --  -10.34576 -10.34111 -10.33561 -10.33299 -10.31709
 Alpha  occ. eigenvalues --  -10.31394 -10.29955 -10.29721 -10.29284 -10.29178
 Alpha  occ. eigenvalues --  -10.29063 -10.28510 -10.27836 -10.27612 -10.26179
 Alpha  occ. eigenvalues --  -10.25635 -10.24875 -10.23190 -10.23149  -1.19304
 Alpha  occ. eigenvalues --   -1.18336  -1.14250  -1.13723  -1.12720  -1.11666
 Alpha  occ. eigenvalues --   -1.09236  -1.05895  -1.02676  -1.02475  -1.01260
 Alpha  occ. eigenvalues --   -0.98636  -0.97058  -0.93963  -0.93118  -0.89922
 Alpha  occ. eigenvalues --   -0.89366  -0.87772  -0.86231  -0.85738  -0.84928
 Alpha  occ. eigenvalues --   -0.83544  -0.81108  -0.79938  -0.77457  -0.75325
 Alpha  occ. eigenvalues --   -0.74378  -0.74235  -0.73973  -0.73360  -0.71249
 Alpha  occ. eigenvalues --   -0.70693  -0.69151  -0.68762  -0.68580  -0.67424
 Alpha  occ. eigenvalues --   -0.66530  -0.66220  -0.65866  -0.65262  -0.63910
 Alpha  occ. eigenvalues --   -0.62961  -0.62530  -0.61968  -0.61566  -0.59718
 Alpha  occ. eigenvalues --   -0.58962  -0.58422  -0.57758  -0.57126  -0.56838
 Alpha  occ. eigenvalues --   -0.56740  -0.56261  -0.55941  -0.55597  -0.55215
 Alpha  occ. eigenvalues --   -0.54914  -0.54145  -0.53581  -0.52961  -0.52654
 Alpha  occ. eigenvalues --   -0.52415  -0.52351  -0.52023  -0.51875  -0.50989
 Alpha  occ. eigenvalues --   -0.50665  -0.50522  -0.50369  -0.49945  -0.49499
 Alpha  occ. eigenvalues --   -0.49349  -0.48698  -0.48067  -0.47769  -0.47330
 Alpha  occ. eigenvalues --   -0.46370  -0.46197  -0.46094  -0.45487  -0.45078
 Alpha  occ. eigenvalues --   -0.44651  -0.44629  -0.44547  -0.44184  -0.43223
 Alpha  occ. eigenvalues --   -0.43060  -0.41764  -0.41381  -0.41018  -0.40984
 Alpha  occ. eigenvalues --   -0.40135  -0.39630  -0.39417  -0.39283  -0.37982
 Alpha  occ. eigenvalues --   -0.36588  -0.36210  -0.35629  -0.35415  -0.35300
 Alpha  occ. eigenvalues --   -0.35221  -0.34698  -0.33725  -0.32860  -0.31796
 Alpha  occ. eigenvalues --   -0.30975  -0.26875
 Alpha virt. eigenvalues --   -0.12636  -0.11424  -0.11341  -0.10687  -0.08319
 Alpha virt. eigenvalues --   -0.06868  -0.06419  -0.06247  -0.05943  -0.03272
 Alpha virt. eigenvalues --   -0.01893  -0.01368  -0.01208  -0.00205   0.00014

 Mulliken charges:
               1
     1  N   -0.759622
     2  H    0.416386
     3  H    0.435833
     4  H    0.412446
     5  C   -0.108353
     6  H    0.215305
     7  C    0.658820
     8  C   -0.382289
     9  H    0.187963
    10  H    0.182776
    11  O   -0.548677
    12  C    0.149517
    13  C   -0.178846
    14  H    0.145026
    15  C   -0.189950
    16  H    0.131102
    17  C   -0.123959
    18  H    0.160448
    19  C   -0.118048
    20  H    0.159341
    21  C   -0.118073
    22  H    0.158201
    23  N   -0.607029
    24  H    0.380666
    25  C   -0.060200
    26  H    0.191604
    27  C    0.626575
    28  C   -0.258364
    29  H    0.156378
    30  H    0.146229
    31  O   -0.555433
    32  C   -0.086005
    33  H    0.130726
    34  C   -0.482101
    35  H    0.139798
    36  H    0.219572
    37  H    0.120812
    38  C   -0.459344
    39  H    0.135438
    40  H    0.133311
    41  H    0.190101
    42  N   -0.625548
    43  H    0.382538
    44  C   -0.054708
    45  H    0.176797
    46  C    0.633087
    47  C   -0.363563
    48  H    0.191381
    49  H    0.191306
    50  O   -0.544866
    51  C    0.545679
    52  N   -0.748729
    53  H    0.353170
    54  H    0.342851
    55  O   -0.458576
    56  N   -0.643648
    57  H    0.382413
    58  C   -0.024217
    59  H    0.210434
    60  C    0.580461
    61  C   -0.268846
    62  H    0.156322
    63  H    0.176897
    64  O   -0.443145
    65  C   -0.313492
    66  H    0.177478
    67  H    0.158373
    68  C   -0.118823
    69  H    0.137194
    70  H    0.164249
    71  N   -0.602938
    72  H    0.340603
    73  N   -0.746288
    74  H    0.329334
    75  H    0.330920
    76  N   -0.663628
    77  H    0.267680
    78  C    0.596330
    79  O   -0.579648
    80  H    0.427087
 Sum of Mulliken charges =   1.00000

 Dipole moment (field-independent basis, Debye):
    X=            -13.7993    Y=              7.7794    Z=             11.4681  Tot=             19.5565
 Quadrupole moment (field-independent basis, Debye-Ang):
   XX=            -75.7087   YY=           -198.2171   ZZ=           -172.7876
   XY=             12.6237   XZ=            -50.0164   YZ=            -12.8815

 Normal termination of Gaussian 16 at Sun Jun 19 01:55:13 2022.
