 Gaussian 16, Revision C.01,
 Gaussian 16:  ES64L-G16RevC.01  3-Jul-2019

 -------------------------------------------------------------------
 # B3LYP/6-31G* guess=read geom=check nosymm integral(ultrafinegrid)
 -------------------------------------------------------------------

 ------------------------------------------------------
 Candidate Structure: Conf:584 Charge calc in gas phase
 ------------------------------------------------------
 Structure from the checkpoint file:  "conf-584.chk"
 Charge =  1 Multiplicity = 1

                          Input orientation:
 ---------------------------------------------------------------------
 Center     Atomic      Atomic             Coordinates (Angstroms)
 Number     Number       Type             X           Y           Z
 ---------------------------------------------------------------------
      1          7           0       -4.243741   -0.844986   -3.822274
      2          1           0       -4.374202    0.142154   -3.467676
      3          1           0       -3.823813   -0.799451   -4.769663
      4          1           0       -5.141167   -1.333613   -3.855393
      5          6           0       -3.257195   -1.430518   -2.837076
      6          1           0       -3.723583   -2.305833   -2.376923
      7          6           0       -3.115643   -0.303677   -1.776098
      8          6           0       -1.935108   -1.847770   -3.562184
      9          1           0       -2.074321   -2.868118   -3.935695
     10          1           0       -1.129504   -1.885272   -2.821436
     11          8           0       -3.610915    0.799068   -2.029663
     12          6           0       -1.560094   -0.926288   -4.704793
     13          6           0       -2.019760   -1.206246   -6.005963
     14          1           0       -2.545588   -2.139894   -6.207470
     15          6           0       -0.805306    0.234467   -4.486663
     16          1           0       -0.406761    0.436083   -3.497011
     17          6           0       -1.740887   -0.330476   -7.060717
     18          1           0       -2.089006   -0.564661   -8.062701
     19          6           0       -0.514565    1.103421   -5.540288
     20          1           0        0.106105    1.981511   -5.359890
     21          6           0       -0.994181    0.823840   -6.824510
     22          1           0       -0.768189    1.500271   -7.643775
     23          7           0       -2.480224   -0.618596   -0.637081
     24          1           0       -2.197379   -1.580923   -0.487922
     25          6           0       -2.305228    0.326660    0.481775
     26          1           0       -2.884877    1.212743    0.217254
     27          6           0       -0.848732    0.816537    0.653270
     28          6           0       -2.822786   -0.269242    1.803597
     29          1           0       -2.237241   -1.172259    2.035385
     30          1           0       -2.580059    0.461775    2.582879
     31          8           0       -0.603876    1.703122    1.463871
     32          6           0       -4.326462   -0.604979    1.850267
     33          1           0       -4.541905   -1.334175    1.052491
     34          6           0       -4.661413   -1.275086    3.191904
     35          1           0       -4.474242   -0.590434    4.028158
     36          1           0       -5.716465   -1.566650    3.231735
     37          1           0       -4.057583   -2.175424    3.356097
     38          6           0       -5.212858    0.628773    1.619502
     39          1           0       -5.002573    1.405848    2.364765
     40          1           0       -5.070239    1.070129    0.626467
     41          1           0       -6.271899    0.363114    1.710192
     42          7           0        0.083318    0.188408   -0.096909
     43          1           0       -0.170662   -0.474174   -0.822206
     44          6           0        1.472939    0.595817   -0.189458
     45          1           0        1.526848    1.668208   -0.414953
     46          6           0        2.031819   -0.195788   -1.403204
     47          6           0        2.241475    0.340687    1.134968
     48          1           0        1.531295    0.447716    1.958300
     49          1           0        2.634050   -0.683678    1.160500
     50          8           0        1.296719   -0.980753   -2.024164
     51          6           0        3.409582    1.303396    1.332597
     52          7           0        3.688637    1.631825    2.614949
     53          1           0        4.448919    2.275470    2.790780
     54          1           0        3.080958    1.386639    3.382140
     55          8           0        4.077908    1.739786    0.391521
     56          7           0        3.313837    0.046306   -1.701737
     57          1           0        3.811649    0.709417   -1.095372
     58          6           0        4.032199   -0.647030   -2.760623
     59          1           0        3.357776   -1.432995   -3.122893
     60          6           0        5.272467   -1.371639   -2.228889
     61          6           0        4.393294    0.284373   -3.933695
     62          1           0        5.099778   -0.249568   -4.577877
     63          1           0        4.918143    1.165067   -3.541916
     64          8           0        6.188395   -1.742590   -2.925167
     65          6           0        3.160609    0.721632   -4.729548
     66          1           0        2.710239   -0.153532   -5.217614
     67          1           0        2.400174    1.135334   -4.060177
     68          6           0        3.462704    1.769410   -5.807912
     69          1           0        4.293087    1.429616   -6.436905
     70          1           0        2.583428    1.891980   -6.451821
     71          7           0        3.853285    3.064366   -5.247021
     72          1           0        4.646685    3.501636   -5.697561
     73          7           0        3.425075    5.221453   -4.540637
     74          1           0        2.790777    5.852631   -4.067843
     75          1           0        4.336344    5.201678   -4.096008
     76          7           0        1.638052    3.640221   -4.797705
     77          1           0        1.083567    4.401636   -4.403990
     78          6           0        2.885038    3.968076   -4.841181
     79          8           0        5.224153   -1.595190   -0.894295
     80          1           0        6.045156   -2.077238   -0.675965
 ---------------------------------------------------------------------

 SCF Done:  E(RB3LYP) =  -1866.59676967     A.U. after    3 cycles

 Alpha  occ. eigenvalues --  -19.27154 -19.26944 -19.21063 -19.20955 -19.20792
 Alpha  occ. eigenvalues --  -19.20192 -14.58777 -14.50666 -14.44744 -14.44643
 Alpha  occ. eigenvalues --  -14.43732 -14.41374 -14.41186 -14.35409 -10.44040
 Alpha  occ. eigenvalues --  -10.40811 -10.39192 -10.38370 -10.37865 -10.37807
 Alpha  occ. eigenvalues --  -10.34893 -10.33929 -10.33387 -10.32920 -10.31261
 Alpha  occ. eigenvalues --  -10.31007 -10.29910 -10.29140 -10.28868 -10.28686
 Alpha  occ. eigenvalues --  -10.28408 -10.28265 -10.28071 -10.27962 -10.27674
 Alpha  occ. eigenvalues --  -10.25473 -10.25272 -10.25242 -10.24418  -1.19460
 Alpha  occ. eigenvalues --   -1.17733  -1.13256  -1.12971  -1.12337  -1.11929
 Alpha  occ. eigenvalues --   -1.08645  -1.06825  -1.04169  -1.01489  -1.00915
 Alpha  occ. eigenvalues --   -0.99367  -0.96301  -0.95163  -0.92570  -0.90761
 Alpha  occ. eigenvalues --   -0.90263  -0.88089  -0.86490  -0.85586  -0.84302
 Alpha  occ. eigenvalues --   -0.83904  -0.81319  -0.78813  -0.77716  -0.76415
 Alpha  occ. eigenvalues --   -0.74589  -0.74062  -0.73869  -0.73165  -0.71977
 Alpha  occ. eigenvalues --   -0.70014  -0.68982  -0.68642  -0.68559  -0.68091
 Alpha  occ. eigenvalues --   -0.67293  -0.66463  -0.65471  -0.64178  -0.63534
 Alpha  occ. eigenvalues --   -0.62837  -0.62725  -0.61534  -0.60776  -0.60630
 Alpha  occ. eigenvalues --   -0.59818  -0.58828  -0.58446  -0.58122  -0.57512
 Alpha  occ. eigenvalues --   -0.56202  -0.55991  -0.55638  -0.55376  -0.54923
 Alpha  occ. eigenvalues --   -0.54481  -0.53997  -0.53533  -0.53315  -0.53004
 Alpha  occ. eigenvalues --   -0.52467  -0.52341  -0.51868  -0.51584  -0.51388
 Alpha  occ. eigenvalues --   -0.51016  -0.50727  -0.50226  -0.50037  -0.49929
 Alpha  occ. eigenvalues --   -0.49330  -0.49088  -0.47643  -0.47526  -0.47416
 Alpha  occ. eigenvalues --   -0.46651  -0.46470  -0.46185  -0.46119  -0.45824
 Alpha  occ. eigenvalues --   -0.45165  -0.44921  -0.44419  -0.44090  -0.43834
 Alpha  occ. eigenvalues --   -0.43695  -0.41780  -0.41693  -0.41459  -0.41224
 Alpha  occ. eigenvalues --   -0.41135  -0.40786  -0.40346  -0.39966  -0.38783
 Alpha  occ. eigenvalues --   -0.36375  -0.35770  -0.35447  -0.35188  -0.34946
 Alpha  occ. eigenvalues --   -0.34800  -0.34474  -0.33718  -0.33534  -0.32628
 Alpha  occ. eigenvalues --   -0.31754  -0.29419
 Alpha virt. eigenvalues --   -0.13016  -0.11420  -0.10937  -0.08984  -0.07152
 Alpha virt. eigenvalues --   -0.06393  -0.06256  -0.05810  -0.05729  -0.03601
 Alpha virt. eigenvalues --   -0.01590  -0.01378  -0.00384  -0.00317  -0.00081

 Mulliken charges:
               1
     1  N   -0.763148
     2  H    0.433957
     3  H    0.404713
     4  H    0.408478
     5  C   -0.104517
     6  H    0.208813
     7  C    0.651439
     8  C   -0.393839
     9  H    0.187197
    10  H    0.224557
    11  O   -0.520521
    12  C    0.118847
    13  C   -0.244663
    14  H    0.141621
    15  C   -0.177697
    16  H    0.155739
    17  C   -0.117840
    18  H    0.159245
    19  C   -0.147905
    20  H    0.234818
    21  C   -0.139319
    22  H    0.162713
    23  N   -0.616709
    24  H    0.350711
    25  C   -0.074571
    26  H    0.223345
    27  C    0.629690
    28  C   -0.282307
    29  H    0.133187
    30  H    0.191524
    31  O   -0.525038
    32  C   -0.068685
    33  H    0.097651
    34  C   -0.445112
    35  H    0.158420
    36  H    0.156596
    37  H    0.144604
    38  C   -0.460521
    39  H    0.162119
    40  H    0.147327
    41  H    0.156500
    42  N   -0.654186
    43  H    0.354207
    44  C   -0.023833
    45  H    0.203687
    46  C    0.605946
    47  C   -0.387686
    48  H    0.189785
    49  H    0.199046
    50  O   -0.573519
    51  C    0.635298
    52  N   -0.738730
    53  H    0.360235
    54  H    0.356449
    55  O   -0.529507
    56  N   -0.609799
    57  H    0.396759
    58  C   -0.073187
    59  H    0.206766
    60  C    0.590852
    61  C   -0.262878
    62  H    0.173461
    63  H    0.154773
    64  O   -0.449853
    65  C   -0.264409
    66  H    0.136718
    67  H    0.165165
    68  C   -0.132434
    69  H    0.143635
    70  H    0.161174
    71  N   -0.595020
    72  H    0.330783
    73  N   -0.756908
    74  H    0.328578
    75  H    0.331800
    76  N   -0.665631
    77  H    0.271771
    78  C    0.608629
    79  O   -0.569067
    80  H    0.419707
 Sum of Mulliken charges =   1.00000

 Dipole moment (field-independent basis, Debye):
    X=             -8.1820    Y=             -2.5129    Z=            -10.0290  Tot=             13.1849
 Quadrupole moment (field-independent basis, Debye-Ang):
   XX=           -140.8252   YY=           -199.1863   ZZ=           -145.0873
   XY=             44.3200   XZ=             48.8989   YZ=              2.1252

 Normal termination of Gaussian 16 at Sun Jun 19 01:55:53 2022.
