 Gaussian 16, Revision C.01,
 Gaussian 16:  ES64L-G16RevC.01  3-Jul-2019

 -------------------------------------------------------------------
 # B3LYP/6-31G* guess=read geom=check nosymm integral(ultrafinegrid)
 -------------------------------------------------------------------

 ------------------------------------------------------
 Candidate Structure: Conf:217 Charge calc in gas phase
 ------------------------------------------------------
 Structure from the checkpoint file:  "conf-217.chk"
 Charge =  1 Multiplicity = 1

                          Input orientation:
 ---------------------------------------------------------------------
 Center     Atomic      Atomic             Coordinates (Angstroms)
 Number     Number       Type             X           Y           Z
 ---------------------------------------------------------------------
      1          7           0       -1.197920   -0.917093    3.719455
      2          1           0       -1.021601   -1.145157    4.700629
      3          1           0       -1.889757   -1.563502    3.309705
      4          1           0       -0.287747   -1.050234    3.154959
      5          6           0       -1.742348    0.480237    3.540910
      6          1           0       -2.513329    0.626317    4.304995
      7          6           0       -2.419257    0.421536    2.144564
      8          6           0       -0.596381    1.500508    3.726508
      9          1           0        0.115218    1.388092    2.902224
     10          1           0       -0.055557    1.217509    4.639938
     11          8           0       -2.677879   -0.693130    1.671311
     12          6           0       -1.049370    2.944864    3.847888
     13          6           0       -0.704117    3.884046    2.863634
     14          1           0       -0.124875    3.573339    1.996823
     15          6           0       -1.794415    3.368930    4.958646
     16          1           0       -2.050724    2.661987    5.745745
     17          6           0       -1.103523    5.218198    2.987567
     18          1           0       -0.822498    5.935100    2.221684
     19          6           0       -2.191925    4.699465    5.080753
     20          1           0       -2.762813    5.014237    5.949345
     21          6           0       -1.847603    5.627337    4.094042
     22          1           0       -2.153326    6.664621    4.192803
     23          7           0       -2.662973    1.581268    1.512532
     24          1           0       -2.317983    2.439653    1.935126
     25          6           0       -2.874321    1.626281    0.046347
     26          1           0       -3.550183    0.808085   -0.209389
     27          6           0       -1.456595    1.381189   -0.518803
     28          6           0       -3.448460    2.976165   -0.389317
     29          1           0       -2.712087    3.752521   -0.147205
     30          1           0       -3.520626    2.960040   -1.485296
     31          8           0       -0.584069    2.232919   -0.423451
     32          6           0       -4.823606    3.338771    0.207371
     33          1           0       -4.735065    3.324559    1.303926
     34          6           0       -5.204320    4.766557   -0.212756
     35          1           0       -5.311025    4.841032   -1.302149
     36          1           0       -6.158584    5.063848    0.235048
     37          1           0       -4.445437    5.493421    0.099295
     38          6           0       -5.920971    2.340825   -0.192445
     39          1           0       -6.027598    2.290400   -1.283666
     40          1           0       -5.721390    1.327112    0.174622
     41          1           0       -6.888605    2.647598    0.218807
     42          7           0       -1.210020    0.108366   -0.987419
     43          1           0       -1.963133   -0.559254   -0.866408
     44          6           0        0.146981   -0.428214   -0.897428
     45          1           0        0.756628    0.417829   -0.559782
     46          6           0        0.796542   -0.866461   -2.219765
     47          6           0        0.222612   -1.590994    0.143410
     48          1           0       -0.719178   -1.653334    0.688394
     49          1           0        0.387057   -2.541930   -0.372305
     50          8           0        1.867968   -1.485953   -2.176702
     51          6           0        1.339055   -1.386205    1.156985
     52          7           0        2.573913   -1.436895    0.652015
     53          1           0        3.371788   -1.278792    1.253841
     54          1           0        2.692268   -1.557973   -0.357291
     55          8           0        1.115512   -1.168006    2.368881
     56          7           0        0.170569   -0.513590   -3.349848
     57          1           0       -0.687373    0.027599   -3.308031
     58          6           0        0.723624   -0.749581   -4.680819
     59          1           0        1.799022   -0.545092   -4.658302
     60          6           0        0.035879    0.256735   -5.597076
     61          6           0        0.502387   -2.215919   -5.137892
     62          1           0       -0.577303   -2.392762   -5.234164
     63          1           0        0.858862   -2.841152   -4.310818
     64          8           0       -1.011643    0.807613   -5.325228
     65          6           0        1.232589   -2.611612   -6.427038
     66          1           0        0.856496   -2.039097   -7.280449
     67          1           0        2.300731   -2.371227   -6.334719
     68          6           0        1.080023   -4.112601   -6.731000
     69          1           0        1.475947   -4.707863   -5.898883
     70          1           0        0.017622   -4.363297   -6.816865
     71          7           0        1.766621   -4.552744   -7.945367
     72          1           0        2.775335   -4.446539   -7.891857
     73          7           0       -0.037884   -4.185151   -9.389196
     74          1           0       -0.322499   -4.033241  -10.349714
     75          1           0       -0.452042   -5.033937   -9.016225
     76          7           0        2.227460   -3.668068  -10.031534
     77          1           0        1.823210   -3.516534  -10.958027
     78          6           0        1.350582   -4.104603   -9.204085
     79          8           0        0.708792    0.450064   -6.739760
     80          1           0        0.188458    1.071890   -7.285088
 ---------------------------------------------------------------------

 SCF Done:  E(RB3LYP) =  -1866.60739737     A.U. after    2 cycles

 Alpha  occ. eigenvalues --  -19.28728 -19.26394 -19.24864 -19.23462 -19.23269
 Alpha  occ. eigenvalues --  -19.22064 -14.56806 -14.49506 -14.47943 -14.46608
 Alpha  occ. eigenvalues --  -14.46042 -14.39697 -14.38839 -14.33021 -10.43465
 Alpha  occ. eigenvalues --  -10.41552 -10.41285 -10.40409 -10.39812 -10.39221
 Alpha  occ. eigenvalues --  -10.35177 -10.35050 -10.33123 -10.33008 -10.32433
 Alpha  occ. eigenvalues --  -10.31245 -10.31161 -10.29712 -10.29404 -10.29174
 Alpha  occ. eigenvalues --  -10.29079 -10.28906 -10.28437 -10.27913 -10.27774
 Alpha  occ. eigenvalues --  -10.27222 -10.25596 -10.25132 -10.24917  -1.19831
 Alpha  occ. eigenvalues --   -1.18541  -1.15582  -1.15435  -1.13700  -1.11550
 Alpha  occ. eigenvalues --   -1.10900  -1.05988  -1.04472  -1.02560  -1.01995
 Alpha  occ. eigenvalues --   -1.01899  -0.96569  -0.93422  -0.92437  -0.90475
 Alpha  occ. eigenvalues --   -0.89523  -0.88968  -0.87603  -0.86028  -0.84787
 Alpha  occ. eigenvalues --   -0.84254  -0.82025  -0.79196  -0.78916  -0.76422
 Alpha  occ. eigenvalues --   -0.74885  -0.74299  -0.72809  -0.72437  -0.71817
 Alpha  occ. eigenvalues --   -0.70843  -0.70768  -0.70087  -0.69074  -0.68425
 Alpha  occ. eigenvalues --   -0.67496  -0.66560  -0.66214  -0.64890  -0.64580
 Alpha  occ. eigenvalues --   -0.64198  -0.63116  -0.62231  -0.61144  -0.60976
 Alpha  occ. eigenvalues --   -0.60278  -0.59468  -0.58604  -0.58204  -0.57471
 Alpha  occ. eigenvalues --   -0.57317  -0.57014  -0.56264  -0.56064  -0.55826
 Alpha  occ. eigenvalues --   -0.55592  -0.54907  -0.54359  -0.54084  -0.53706
 Alpha  occ. eigenvalues --   -0.53197  -0.52987  -0.52537  -0.52258  -0.52083
 Alpha  occ. eigenvalues --   -0.51819  -0.51472  -0.51029  -0.50710  -0.50307
 Alpha  occ. eigenvalues --   -0.49786  -0.49556  -0.49310  -0.48850  -0.48163
 Alpha  occ. eigenvalues --   -0.47748  -0.47702  -0.47464  -0.46616  -0.46356
 Alpha  occ. eigenvalues --   -0.46078  -0.44993  -0.44713  -0.44511  -0.44308
 Alpha  occ. eigenvalues --   -0.43930  -0.42539  -0.41585  -0.41583  -0.41416
 Alpha  occ. eigenvalues --   -0.41317  -0.40994  -0.40615  -0.40318  -0.39863
 Alpha  occ. eigenvalues --   -0.39378  -0.38786  -0.38687  -0.37005  -0.36458
 Alpha  occ. eigenvalues --   -0.35580  -0.35376  -0.35143  -0.34980  -0.31094
 Alpha  occ. eigenvalues --   -0.30258  -0.27251
 Alpha virt. eigenvalues --   -0.13555  -0.11078  -0.10777  -0.10491  -0.09120
 Alpha virt. eigenvalues --   -0.08595  -0.07736  -0.07319  -0.03182  -0.02351
 Alpha virt. eigenvalues --   -0.01369  -0.00917  -0.00586  -0.00004   0.00016

 Mulliken charges:
               1
     1  N   -0.778223
     2  H    0.398188
     3  H    0.411553
     4  H    0.457649
     5  C   -0.124730
     6  H    0.221039
     7  C    0.645584
     8  C   -0.374023
     9  H    0.196727
    10  H    0.183971
    11  O   -0.543604
    12  C    0.125086
    13  C   -0.225378
    14  H    0.177232
    15  C   -0.175309
    16  H    0.131580
    17  C   -0.124790
    18  H    0.163978
    19  C   -0.123919
    20  H    0.161394
    21  C   -0.123365
    22  H    0.163481
    23  N   -0.596751
    24  H    0.376835
    25  C   -0.071459
    26  H    0.182514
    27  C    0.605521
    28  C   -0.290256
    29  H    0.166757
    30  H    0.165012
    31  O   -0.500904
    32  C   -0.078653
    33  H    0.127974
    34  C   -0.445719
    35  H    0.154242
    36  H    0.158591
    37  H    0.146566
    38  C   -0.455760
    39  H    0.152628
    40  H    0.141485
    41  H    0.163591
    42  N   -0.621198
    43  H    0.353109
    44  C   -0.064161
    45  H    0.226007
    46  C    0.644310
    47  C   -0.403869
    48  H    0.181631
    49  H    0.209762
    50  O   -0.555032
    51  C    0.599624
    52  N   -0.720203
    53  H    0.361225
    54  H    0.403818
    55  O   -0.579024
    56  N   -0.618981
    57  H    0.368594
    58  C   -0.026739
    59  H    0.201405
    60  C    0.584722
    61  C   -0.277945
    62  H    0.148803
    63  H    0.169955
    64  O   -0.469036
    65  C   -0.269949
    66  H    0.175754
    67  H    0.146825
    68  C   -0.143978
    69  H    0.147915
    70  H    0.147838
    71  N   -0.569455
    72  H    0.328652
    73  N   -0.743643
    74  H    0.324893
    75  H    0.329075
    76  N   -0.628853
    77  H    0.267548
    78  C    0.541242
    79  O   -0.545462
    80  H    0.428485
 Sum of Mulliken charges =   1.00000

 Dipole moment (field-independent basis, Debye):
    X=             -8.3085    Y=              0.9492    Z=              7.1873  Tot=             11.0268
 Quadrupole moment (field-independent basis, Debye-Ang):
   XX=           -208.4034   YY=           -188.9927   ZZ=           -129.5763
   XY=             -7.7067   XZ=              4.6493   YZ=             18.2579

 Normal termination of Gaussian 16 at Sun Jun 19 01:55:31 2022.
