 Gaussian 16, Revision C.01,
 Gaussian 16:  ES64L-G16RevC.01  3-Jul-2019

 -------------------------------------------------------------------
 # B3LYP/6-31G* guess=read geom=check nosymm integral(ultrafinegrid)
 -------------------------------------------------------------------

 ------------------------------------------------------
 Candidate Structure: Conf:234 Charge calc in gas phase
 ------------------------------------------------------
 Structure from the checkpoint file:  "conf-234.chk"
 Charge =  1 Multiplicity = 1

                          Input orientation:
 ---------------------------------------------------------------------
 Center     Atomic      Atomic             Coordinates (Angstroms)
 Number     Number       Type             X           Y           Z
 ---------------------------------------------------------------------
      1          7           0       -4.768288    0.337400    4.520648
      2          1           0       -5.753893    0.421092    4.780648
      3          1           0       -4.657582   -0.480191    3.857955
      4          1           0       -4.215246    0.229170    5.383932
      5          6           0       -4.271336    1.506776    3.698271
      6          1           0       -5.052736    2.270151    3.707969
      7          6           0       -4.099000    0.892137    2.282851
      8          6           0       -2.944461    2.069972    4.275296
      9          1           0       -2.772294    3.035321    3.785797
     10          1           0       -2.111166    1.423075    3.975678
     11          8           0       -4.307771   -0.320616    2.151563
     12          6           0       -2.992758    2.232852    5.780121
     13          6           0       -3.677281    3.300870    6.380235
     14          1           0       -4.138304    4.065912    5.758636
     15          6           0       -2.386175    1.269344    6.603525
     16          1           0       -1.811033    0.462771    6.151139
     17          6           0       -3.752051    3.403841    7.768695
     18          1           0       -4.273962    4.242715    8.219918
     19          6           0       -2.466860    1.370151    7.996789
     20          1           0       -1.982822    0.624311    8.620562
     21          6           0       -3.151468    2.435849    8.579804
     22          1           0       -3.209816    2.520212    9.660804
     23          7           0       -3.725655    1.730394    1.311686
     24          1           0       -3.368059    2.647690    1.571896
     25          6           0       -3.126943    1.255998    0.052535
     26          1           0       -3.222367    0.169334    0.043002
     27          6           0       -1.648135    1.675794    0.161243
     28          6           0       -3.796790    1.883553   -1.182330
     29          1           0       -3.644561    2.970066   -1.137016
     30          1           0       -3.249101    1.531667   -2.067794
     31          8           0       -1.356570    2.754270    0.681144
     32          6           0       -5.297046    1.573152   -1.353403
     33          1           0       -5.817350    1.934224   -0.453891
     34          6           0       -5.849156    2.350205   -2.558282
     35          1           0       -5.368756    2.024771   -3.489609
     36          1           0       -6.926927    2.187571   -2.667596
     37          1           0       -5.680849    3.428523   -2.454443
     38          6           0       -5.576771    0.068952   -1.496034
     39          1           0       -5.033607   -0.352700   -2.351776
     40          1           0       -5.292390   -0.495915   -0.601184
     41          1           0       -6.644471   -0.108128   -1.666575
     42          7           0       -0.747353    0.797550   -0.319958
     43          1           0       -1.027020   -0.068179   -0.770083
     44          6           0        0.682836    0.977285   -0.182862
     45          1           0        0.891728    2.050807   -0.169350
     46          6           0        1.342772    0.277061   -1.384456
     47          6           0        1.239264    0.305044    1.110013
     48          1           0        0.995560   -0.760838    1.068577
     49          1           0        2.331757    0.397423    1.109951
     50          8           0        0.800161   -0.693173   -1.902040
     51          6           0        0.635718    0.858136    2.399026
     52          7           0        1.416457    1.740520    3.074387
     53          1           0        1.064024    2.159150    3.923839
     54          1           0        2.339475    2.002809    2.762810
     55          8           0       -0.478642    0.518305    2.795731
     56          7           0        2.543897    0.785543   -1.764536
     57          1           0        2.965900    1.488923   -1.169480
     58          6           0        3.490675    0.028585   -2.573787
     59          1           0        3.010447   -0.919797   -2.830346
     60          6           0        4.708511   -0.262946   -1.698729
     61          6           0        3.909140    0.770157   -3.865498
     62          1           0        4.661350    0.155067   -4.372149
     63          1           0        4.406249    1.707801   -3.583135
     64          8           0        4.897673    0.224608   -0.616712
     65          6           0        2.750899    1.076593   -4.824905
     66          1           0        2.004661    1.710764   -4.331742
     67          1           0        3.165141    1.672209   -5.651009
     68          6           0        2.068561   -0.172832   -5.392160
     69          1           0        2.823642   -0.881865   -5.770591
     70          1           0        1.502559   -0.702838   -4.622251
     71          7           0        1.121614    0.204939   -6.436552
     72          1           0        1.537727    0.765960   -7.173398
     73          7           0       -0.409759   -0.329860   -8.086622
     74          1           0       -1.159561   -0.941820   -8.384343
     75          1           0       -0.714900    0.636900   -8.041649
     76          7           0        0.193049   -1.929675   -6.385852
     77          1           0       -0.546901   -2.491986   -6.809731
     78          6           0        0.268072   -0.776078   -6.941044
     79          8           0        5.562030   -1.110153   -2.290251
     80          1           0        6.320472   -1.228742   -1.686178
 ---------------------------------------------------------------------

 SCF Done:  E(RB3LYP) =  -1866.59260731     A.U. after    1 cycles

 Alpha  occ. eigenvalues --  -19.27752 -19.25999 -19.22498 -19.20961 -19.20786
 Alpha  occ. eigenvalues --  -19.20701 -14.58404 -14.48456 -14.45404 -14.45166
 Alpha  occ. eigenvalues --  -14.44961 -14.39184 -14.38900 -14.32654 -10.42711
 Alpha  occ. eigenvalues --  -10.40216 -10.39735 -10.38580 -10.38234 -10.37934
 Alpha  occ. eigenvalues --  -10.33482 -10.33290 -10.32185 -10.32146 -10.31723
 Alpha  occ. eigenvalues --  -10.31550 -10.30303 -10.30136 -10.29870 -10.29804
 Alpha  occ. eigenvalues --  -10.29538 -10.29232 -10.27535 -10.26997 -10.26453
 Alpha  occ. eigenvalues --  -10.25929 -10.24771 -10.24604 -10.24458  -1.19273
 Alpha  occ. eigenvalues --   -1.18299  -1.13443  -1.12669  -1.12423  -1.12149
 Alpha  occ. eigenvalues --   -1.10422  -1.05140  -1.02061  -1.01751  -1.01612
 Alpha  occ. eigenvalues --   -0.99738  -0.96956  -0.93110  -0.92295  -0.89794
 Alpha  occ. eigenvalues --   -0.88526  -0.88215  -0.86484  -0.86099  -0.85369
 Alpha  occ. eigenvalues --   -0.83394  -0.81017  -0.78655  -0.77666  -0.75550
 Alpha  occ. eigenvalues --   -0.74134  -0.73386  -0.72945  -0.72234  -0.71301
 Alpha  occ. eigenvalues --   -0.71043  -0.69773  -0.69514  -0.68377  -0.67993
 Alpha  occ. eigenvalues --   -0.67138  -0.66160  -0.65417  -0.63676  -0.63127
 Alpha  occ. eigenvalues --   -0.63082  -0.62309  -0.61899  -0.61173  -0.58540
 Alpha  occ. eigenvalues --   -0.58183  -0.57751  -0.57599  -0.56996  -0.56911
 Alpha  occ. eigenvalues --   -0.56694  -0.56177  -0.56096  -0.55842  -0.55425
 Alpha  occ. eigenvalues --   -0.54971  -0.54534  -0.53870  -0.53327  -0.52807
 Alpha  occ. eigenvalues --   -0.52578  -0.52222  -0.51870  -0.51557  -0.51085
 Alpha  occ. eigenvalues --   -0.50903  -0.50079  -0.49779  -0.49285  -0.49121
 Alpha  occ. eigenvalues --   -0.48463  -0.48295  -0.47921  -0.47662  -0.47286
 Alpha  occ. eigenvalues --   -0.46949  -0.46776  -0.46417  -0.46069  -0.45522
 Alpha  occ. eigenvalues --   -0.45260  -0.45197  -0.44814  -0.44328  -0.44036
 Alpha  occ. eigenvalues --   -0.42714  -0.42438  -0.40863  -0.40696  -0.40454
 Alpha  occ. eigenvalues --   -0.40369  -0.40104  -0.39630  -0.39448  -0.38529
 Alpha  occ. eigenvalues --   -0.36260  -0.36223  -0.36049  -0.35897  -0.35709
 Alpha  occ. eigenvalues --   -0.35294  -0.34680  -0.34265  -0.33335  -0.30704
 Alpha  occ. eigenvalues --   -0.29693  -0.27179
 Alpha virt. eigenvalues --   -0.12443  -0.11899  -0.10655  -0.08928  -0.08119
 Alpha virt. eigenvalues --   -0.06958  -0.06830  -0.05433  -0.04007  -0.02305
 Alpha virt. eigenvalues --   -0.01694  -0.01309  -0.00573   0.00083   0.00306

 Mulliken charges:
               1
     1  N   -0.755823
     2  H    0.411960
     3  H    0.431161
     4  H    0.405660
     5  C   -0.107300
     6  H    0.212908
     7  C    0.663476
     8  C   -0.429590
     9  H    0.193583
    10  H    0.250610
    11  O   -0.534719
    12  C    0.131090
    13  C   -0.183851
    14  H    0.142672
    15  C   -0.236231
    16  H    0.162187
    17  C   -0.123768
    18  H    0.164655
    19  C   -0.121529
    20  H    0.164372
    21  C   -0.125440
    22  H    0.166305
    23  N   -0.579164
    24  H    0.362963
    25  C   -0.105732
    26  H    0.197024
    27  C    0.662041
    28  C   -0.263065
    29  H    0.154190
    30  H    0.157645
    31  O   -0.556980
    32  C   -0.070198
    33  H    0.121719
    34  C   -0.445690
    35  H    0.150629
    36  H    0.155315
    37  H    0.146938
    38  C   -0.464862
    39  H    0.150394
    40  H    0.154934
    41  H    0.156825
    42  N   -0.600386
    43  H    0.360961
    44  C   -0.068312
    45  H    0.189408
    46  C    0.620193
    47  C   -0.367526
    48  H    0.197230
    49  H    0.173100
    50  O   -0.510291
    51  C    0.622447
    52  N   -0.733917
    53  H    0.347469
    54  H    0.352840
    55  O   -0.530237
    56  N   -0.580508
    57  H    0.339694
    58  C   -0.082157
    59  H    0.226013
    60  C    0.590427
    61  C   -0.278437
    62  H    0.176373
    63  H    0.143683
    64  O   -0.470678
    65  C   -0.274511
    66  H    0.150863
    67  H    0.138558
    68  C   -0.116159
    69  H    0.141657
    70  H    0.198574
    71  N   -0.613651
    72  H    0.315463
    73  N   -0.755709
    74  H    0.322455
    75  H    0.322351
    76  N   -0.643407
    77  H    0.266957
    78  C    0.587708
    79  O   -0.550586
    80  H    0.424737
 Sum of Mulliken charges =   1.00000

 Dipole moment (field-independent basis, Debye):
    X=            -11.3780    Y=              8.4468    Z=             13.9298  Tot=             19.8708
 Quadrupole moment (field-independent basis, Debye-Ang):
   XX=           -110.3119   YY=           -216.2207   ZZ=            -84.7944
   XY=            -17.5878   XZ=            -68.2849   YZ=             13.1379

 Normal termination of Gaussian 16 at Sun Jun 19 01:55:10 2022.
