 Gaussian 16, Revision C.01,
 Gaussian 16:  ES64L-G16RevC.01  3-Jul-2019

 -------------------------------------------------------------------
 # B3LYP/6-31G* guess=read geom=check nosymm integral(ultrafinegrid)
 -------------------------------------------------------------------

 ------------------------------------------------------
 Candidate Structure: Conf:962 Charge calc in gas phase
 ------------------------------------------------------
 Structure from the checkpoint file:  "conf-962.chk"
 Charge =  1 Multiplicity = 1

                          Input orientation:
 ---------------------------------------------------------------------
 Center     Atomic      Atomic             Coordinates (Angstroms)
 Number     Number       Type             X           Y           Z
 ---------------------------------------------------------------------
      1          7           0       -6.104605    0.206174    3.370122
      2          1           0       -6.923951    0.798968    3.518111
      3          1           0       -6.168779   -0.326227    2.449560
      4          1           0       -6.023480   -0.474802    4.142268
      5          6           0       -4.809137    0.966564    3.201676
      6          1           0       -5.065628    2.016198    3.030750
      7          6           0       -4.242591    0.379287    1.872518
      8          6           0       -3.915560    0.835016    4.459702
      9          1           0       -4.329295    1.482797    5.240817
     10          1           0       -2.930646    1.246269    4.214226
     11          8           0       -4.958577   -0.422189    1.251002
     12          6           0       -3.804075   -0.587778    4.970348
     13          6           0       -4.633925   -1.022151    6.018104
     14          1           0       -5.289473   -0.311051    6.519591
     15          6           0       -2.915947   -1.504316    4.387102
     16          1           0       -2.253602   -1.180746    3.588465
     17          6           0       -4.583204   -2.345561    6.467532
     18          1           0       -5.221304   -2.662088    7.287213
     19          6           0       -2.863366   -2.822118    4.839171
     20          1           0       -2.164886   -3.519014    4.385477
     21          6           0       -3.699630   -3.247100    5.875464
     22          1           0       -3.653050   -4.273696    6.225861
     23          7           0       -3.052268    0.815875    1.487791
     24          1           0       -2.481867    1.459599    2.041435
     25          6           0       -2.373902    0.433776    0.243934
     26          1           0       -2.467744   -0.648558    0.115788
     27          6           0       -0.901044    0.829184    0.501077
     28          6           0       -3.003876    1.171547   -0.966542
     29          1           0       -4.088279    1.019554   -0.893077
     30          1           0       -2.820541    2.246226   -0.836786
     31          8           0       -0.630272    1.604219    1.427771
     32          6           0       -2.552009    0.733133   -2.376409
     33          1           0       -1.471666    0.897507   -2.476665
     34          6           0       -2.840703   -0.750735   -2.654555
     35          1           0       -3.909075   -0.972763   -2.537402
     36          1           0       -2.553814   -1.009587   -3.678711
     37          1           0       -2.286550   -1.426273   -1.991142
     38          6           0       -3.246388    1.621557   -3.421283
     39          1           0       -4.335960    1.493958   -3.387146
     40          1           0       -3.026143    2.682829   -3.257433
     41          1           0       -2.912708    1.362797   -4.431539
     42          7           0        0.012510    0.295911   -0.321049
     43          1           0       -0.245018   -0.279086   -1.124063
     44          6           0        1.400673    0.734897   -0.378702
     45          1           0        1.442621    1.822361   -0.261980
     46          6           0        1.877815    0.332760   -1.799164
     47          6           0        2.250326    0.090613    0.744508
     48          1           0        1.629035    0.018935    1.643404
     49          1           0        2.543502   -0.928650    0.462296
     50          8           0        1.151431   -0.362174   -2.517201
     51          6           0        3.508879    0.892069    1.078653
     52          7           0        4.107430    0.571918    2.250841
     53          1           0        4.978125    1.029442    2.486164
     54          1           0        3.772041   -0.164993    2.852681
     55          8           0        3.953867    1.775068    0.343920
     56          7           0        3.095018    0.772773   -2.153570
     57          1           0        3.630494    1.280859   -1.448672
     58          6           0        3.731130    0.327760   -3.383436
     59          1           0        2.997518    0.399145   -4.191947
     60          6           0        4.146538   -1.147262   -3.359051
     61          6           0        4.950537    1.206220   -3.736559
     62          1           0        4.590437    2.231756   -3.894604
     63          1           0        5.321170    0.840866   -4.700754
     64          8           0        4.430144   -1.767556   -4.355997
     65          6           0        6.084854    1.191134   -2.701461
     66          1           0        5.741583    1.612233   -1.746716
     67          1           0        6.413839    0.166615   -2.499325
     68          6           0        7.319642    1.998309   -3.142301
     69          1           0        7.038207    3.036066   -3.362282
     70          1           0        8.036952    2.015821   -2.318261
     71          7           0        8.026120    1.484903   -4.309088
     72          1           0        7.565302    1.611797   -5.201239
     73          7           0        9.298655   -0.063118   -5.458062
     74          1           0        9.961801   -0.826533   -5.405771
     75          1           0        9.661547    0.705477   -6.012622
     76          7           0        8.903306   -0.291152   -3.090404
     77          1           0        9.585627   -1.047191   -3.164864
     78          6           0        8.773863    0.318847   -4.214609
     79          8           0        4.208499   -1.680582   -2.113641
     80          1           0        4.520236   -2.597414   -2.239913
 ---------------------------------------------------------------------

 SCF Done:  E(RB3LYP) =  -1866.59450277     A.U. after    1 cycles

 Alpha  occ. eigenvalues --  -19.26714 -19.25565 -19.22125 -19.20510 -19.19600
 Alpha  occ. eigenvalues --  -19.19305 -14.59122 -14.49257 -14.45337 -14.44441
 Alpha  occ. eigenvalues --  -14.42485 -14.38621 -14.38555 -14.32236 -10.43491
 Alpha  occ. eigenvalues --  -10.40898 -10.39058 -10.38210 -10.37506 -10.36430
 Alpha  occ. eigenvalues --  -10.34453 -10.34410 -10.32572 -10.32390 -10.31850
 Alpha  occ. eigenvalues --  -10.31350 -10.30877 -10.30630 -10.30488 -10.30259
 Alpha  occ. eigenvalues --  -10.29956 -10.28890 -10.28157 -10.27109 -10.25736
 Alpha  occ. eigenvalues --  -10.24931 -10.24893 -10.24525 -10.22724  -1.19073
 Alpha  occ. eigenvalues --   -1.16185  -1.14106  -1.13237  -1.12239  -1.11289
 Alpha  occ. eigenvalues --   -1.07088  -1.05904  -1.02042  -1.01319  -0.99785
 Alpha  occ. eigenvalues --   -0.99133  -0.97913  -0.93347  -0.92571  -0.90237
 Alpha  occ. eigenvalues --   -0.87849  -0.87467  -0.87137  -0.86174  -0.84950
 Alpha  occ. eigenvalues --   -0.83917  -0.79948  -0.79422  -0.77289  -0.75907
 Alpha  occ. eigenvalues --   -0.75389  -0.74154  -0.72891  -0.72456  -0.71762
 Alpha  occ. eigenvalues --   -0.70967  -0.69925  -0.68605  -0.68265  -0.67473
 Alpha  occ. eigenvalues --   -0.66640  -0.65155  -0.64491  -0.64290  -0.63628
 Alpha  occ. eigenvalues --   -0.62667  -0.61617  -0.61352  -0.60715  -0.59795
 Alpha  occ. eigenvalues --   -0.58497  -0.57955  -0.57823  -0.57592  -0.57400
 Alpha  occ. eigenvalues --   -0.56744  -0.56144  -0.55689  -0.55229  -0.54223
 Alpha  occ. eigenvalues --   -0.54090  -0.53746  -0.53417  -0.52911  -0.52859
 Alpha  occ. eigenvalues --   -0.52837  -0.52377  -0.51574  -0.51351  -0.51039
 Alpha  occ. eigenvalues --   -0.50541  -0.50294  -0.49784  -0.49670  -0.49237
 Alpha  occ. eigenvalues --   -0.48777  -0.47808  -0.47560  -0.47305  -0.46524
 Alpha  occ. eigenvalues --   -0.46284  -0.46158  -0.45937  -0.45782  -0.45699
 Alpha  occ. eigenvalues --   -0.45390  -0.44835  -0.44549  -0.43632  -0.43197
 Alpha  occ. eigenvalues --   -0.42485  -0.42196  -0.41388  -0.40758  -0.40248
 Alpha  occ. eigenvalues --   -0.39778  -0.39439  -0.38293  -0.38255  -0.37105
 Alpha  occ. eigenvalues --   -0.36984  -0.36618  -0.36318  -0.36011  -0.35540
 Alpha  occ. eigenvalues --   -0.34998  -0.34065  -0.33529  -0.31274  -0.30407
 Alpha  occ. eigenvalues --   -0.29179  -0.26466
 Alpha virt. eigenvalues --   -0.13134  -0.12691  -0.12003  -0.08988  -0.07886
 Alpha virt. eigenvalues --   -0.06219  -0.05257  -0.04522  -0.04433  -0.03394
 Alpha virt. eigenvalues --   -0.01844  -0.01394  -0.00393  -0.00057   0.00281

 Mulliken charges:
               1
     1  N   -0.761233
     2  H    0.409998
     3  H    0.434400
     4  H    0.404663
     5  C   -0.107572
     6  H    0.224936
     7  C    0.661572
     8  C   -0.386085
     9  H    0.189549
    10  H    0.208362
    11  O   -0.544253
    12  C    0.124665
    13  C   -0.227817
    14  H    0.146855
    15  C   -0.171733
    16  H    0.149223
    17  C   -0.118116
    18  H    0.167688
    19  C   -0.122376
    20  H    0.164434
    21  C   -0.122053
    22  H    0.169593
    23  N   -0.620809
    24  H    0.375306
    25  C   -0.066950
    26  H    0.190919
    27  C    0.622904
    28  C   -0.260500
    29  H    0.160564
    30  H    0.150643
    31  O   -0.555397
    32  C   -0.099401
    33  H    0.149361
    34  C   -0.453268
    35  H    0.150314
    36  H    0.172619
    37  H    0.136195
    38  C   -0.448106
    39  H    0.145165
    40  H    0.148514
    41  H    0.164150
    42  N   -0.634534
    43  H    0.382683
    44  C   -0.048647
    45  H    0.206122
    46  C    0.615108
    47  C   -0.385138
    48  H    0.181880
    49  H    0.201466
    50  O   -0.548718
    51  C    0.636415
    52  N   -0.742006
    53  H    0.362445
    54  H    0.348617
    55  O   -0.522923
    56  N   -0.639253
    57  H    0.405237
    58  C   -0.029917
    59  H    0.197451
    60  C    0.608659
    61  C   -0.303075
    62  H    0.149587
    63  H    0.167693
    64  O   -0.455905
    65  C   -0.298744
    66  H    0.146323
    67  H    0.187826
    68  C   -0.125997
    69  H    0.135920
    70  H    0.179163
    71  N   -0.593623
    72  H    0.320109
    73  N   -0.756749
    74  H    0.323700
    75  H    0.326324
    76  N   -0.654449
    77  H    0.266945
    78  C    0.595336
    79  O   -0.578012
    80  H    0.415759
 Sum of Mulliken charges =   1.00000

 Dipole moment (field-independent basis, Debye):
    X=            -14.1248    Y=              0.6022    Z=             14.5675  Tot=             20.2999
 Quadrupole moment (field-independent basis, Debye-Ang):
   XX=            -55.5734   YY=           -212.9096   ZZ=           -138.3699
   XY=             -9.9756   XZ=            -99.2995   YZ=            -21.0443

 Normal termination of Gaussian 16 at Sun Jun 19 01:55:10 2022.
