 Gaussian 16, Revision C.01,
 Gaussian 16:  ES64L-G16RevC.01  3-Jul-2019

 ----------------------------------------------------------------------
 # B3LYP/6-31G* empiricaldispersion=gd3bj guess=read geom=check nosymm
 integral(ultrafinegrid)
 ----------------------------------------------------------------------

 ------------------------------------------------------
 Candidate Structure: Conf:197 Charge calc in gas phase
 ------------------------------------------------------
 Structure from the checkpoint file:  "conf-197.chk"
 Charge =  1 Multiplicity = 1

                          Input orientation:
 ---------------------------------------------------------------------
 Center     Atomic      Atomic             Coordinates (Angstroms)
 Number     Number       Type             X           Y           Z
 ---------------------------------------------------------------------
      1          7           0       -8.194590    2.452028    3.991421
      2          1           0       -8.552955    2.043162    4.859765
      3          1           0       -8.967817    2.897883    3.490824
      4          1           0       -7.426561    3.152983    4.240808
      5          6           0       -7.409236    1.469077    3.149871
      6          1           0       -7.725952    0.455901    3.401928
      7          6           0       -5.948037    1.753906    3.601838
      8          6           0       -7.631808    1.781945    1.653005
      9          1           0       -8.605462    1.390611    1.336255
     10          1           0       -7.609869    2.864133    1.497111
     11          8           0       -5.738781    2.861692    4.118041
     12          6           0       -6.462980    1.214801    0.828278
     13          7           0       -6.523166   -0.116539    0.573461
     14          1           0       -5.678240   -0.565049    0.233001
     15          1           0       -7.374366   -0.655528    0.634440
     16          8           0       -5.502710    1.921345    0.571511
     17          7           0       -5.069530    0.786044    3.388038
     18          1           0       -5.344144   -0.038400    2.850359
     19          6           0       -3.614615    0.982032    3.334935
     20          1           0       -3.418271    2.055705    3.368543
     21          6           0       -3.221579    0.385852    1.972556
     22          6           0       -2.892745    0.254799    4.496983
     23          1           0       -3.161507   -0.806424    4.403697
     24          8           0       -3.831964   -0.606407    1.549636
     25          6           0       -3.396216    0.741259    5.871138
     26          1           0       -2.957275    0.079926    6.628225
     27          1           0       -4.481720    0.587240    5.929678
     28          6           0       -1.366379    0.372732    4.364939
     29          1           0       -1.045875    1.416946    4.269038
     30          1           0       -0.885519   -0.032437    5.260641
     31          1           0       -0.967212   -0.177882    3.510032
     32          6           0       -3.067429    2.196456    6.220237
     33          1           0       -3.434152    2.435343    7.224044
     34          1           0       -1.988363    2.379228    6.216617
     35          1           0       -3.538878    2.899743    5.526340
     36          7           0       -2.213790    0.987777    1.337899
     37          1           0       -1.692306    1.738738    1.779193
     38          6           0       -1.584888    0.453604    0.136046
     39          1           0       -1.899171   -0.588537    0.041257
     40          6           0       -0.080026    0.554205    0.405632
     41          6           0       -1.996325    1.253158   -1.105756
     42          1           0       -1.567798    0.809267   -2.010076
     43          1           0       -3.086787    1.263102   -1.188573
     44          1           0       -1.642587    2.285224   -1.022218
     45          8           0        0.362653    1.539827    1.013335
     46          7           0        0.674306   -0.457186   -0.039219
     47          1           0        0.279490   -1.269208   -0.504574
     48          6           0        2.102960   -0.542440    0.200762
     49          1           0        2.539672    0.452432    0.060406
     50          6           0        2.637558   -1.538408   -0.835877
     51          6           0        2.411639   -1.032097    1.655685
     52          1           0        2.193659   -2.105942    1.698119
     53          8           0        1.897245   -2.407258   -1.298315
     54          6           0        3.867039   -0.780227    2.048353
     55          1           0        4.577435   -1.338240    1.431313
     56          1           0        4.009898   -1.081279    3.089519
     57          1           0        4.107114    0.287846    1.970953
     58          8           0        1.522856   -0.438160    2.590786
     59          1           0        1.441838    0.507942    2.369879
     60          7           0        3.937568   -1.405607   -1.163164
     61          1           0        4.540671   -0.740482   -0.686646
     62          6           0        4.663008   -2.403072   -1.923321
     63          1           0        4.197145   -3.382142   -1.772379
     64          6           0        6.104468   -2.382303   -1.395914
     65          6           0        4.618736   -2.074024   -3.428942
     66          1           0        5.102986   -1.103341   -3.599728
     67          1           0        3.563572   -1.995140   -3.720276
     68          8           0        6.507709   -1.439484   -0.716599
     69          8           0        5.273527   -3.109742   -4.148091
     70          1           0        5.600348   -2.721696   -4.991312
     71          7           0        6.870308   -3.441727   -1.758561
     72          1           0        6.458318   -4.085008   -2.424196
     73          6           0        8.319548   -3.394852   -1.655622
     74          1           0        8.577203   -2.730098   -0.829521
     75          1           0        8.711533   -4.388655   -1.422377
     76          6           0        9.046637   -2.884413   -2.910847
     77          8           0       10.268240   -2.804763   -2.926795
     78          7           0        8.247675   -2.540155   -3.954707
     79          1           0        7.252977   -2.737489   -3.920116
     80          6           0        8.806019   -2.101872   -5.216511
     81          1           0        9.641143   -1.428652   -5.013918
     82          6           0        7.770624   -1.366640   -6.041494
     83          6           0        9.335044   -3.306567   -6.060525
     84          1           0       10.240278   -3.646990   -5.550803
     85          1           0        8.597577   -4.114780   -5.978625
     86          8           0        8.316504   -0.469428   -6.833530
     87          6           0        9.618049   -3.008224   -7.547262
     88          1           0        9.998665   -1.986942   -7.644719
     89          1           0       10.424092   -3.667010   -7.887509
     90          6           0        8.387724   -3.215935   -8.473614
     91          1           0        7.464802   -3.238022   -7.881943
     92          1           0        8.460725   -4.209050   -8.930519
     93          6           0        8.207455   -2.183602   -9.602090
     94          1           0        9.177282   -1.774945   -9.904527
     95          1           0        7.771568   -2.668352  -10.485653
     96          7           0        7.358168   -1.038767   -9.175529
     97          1           0        7.313156   -0.336906   -9.913119
     98          1           0        7.817547   -0.478644   -7.749853
     99          1           0        6.403579   -1.361712   -9.016859
    100          8           0        6.575264   -1.670526   -6.075370
 ---------------------------------------------------------------------

 SCF Done:  E(RB3LYP) =  -2418.64674641     A.U. after    3 cycles

 Alpha  occ. eigenvalues --  -19.27213 -19.23513 -19.21594 -19.21349 -19.20292
 Alpha  occ. eigenvalues --  -19.19535 -19.19531 -19.19485 -19.18566 -19.18033
 Alpha  occ. eigenvalues --  -19.14866 -14.61141 -14.49325 -14.47596 -14.45142
 Alpha  occ. eigenvalues --  -14.43680 -14.42574 -14.42041 -14.41148 -14.39761
 Alpha  occ. eigenvalues --  -10.43844 -10.42284 -10.41713 -10.38418 -10.36985
 Alpha  occ. eigenvalues --  -10.36632 -10.35749 -10.35441 -10.34903 -10.33498
 Alpha  occ. eigenvalues --  -10.32620 -10.31526 -10.30196 -10.30152 -10.29446
 Alpha  occ. eigenvalues --  -10.29357 -10.28197 -10.27873 -10.27814 -10.27395
 Alpha  occ. eigenvalues --  -10.26210 -10.25637 -10.24743 -10.24501 -10.23895
 Alpha  occ. eigenvalues --  -10.23504 -10.23125 -10.22930  -1.19873  -1.15584
 Alpha  occ. eigenvalues --   -1.14784  -1.14353  -1.13324  -1.11745  -1.10695
 Alpha  occ. eigenvalues --   -1.09784  -1.07699  -1.07153  -1.07035  -1.06256
 Alpha  occ. eigenvalues --   -1.05446  -1.02614  -1.01830  -1.00103  -0.99322
 Alpha  occ. eigenvalues --   -0.98681  -0.96537  -0.96305  -0.94502  -0.90325
 Alpha  occ. eigenvalues --   -0.86416  -0.85053  -0.84698  -0.84051  -0.82050
 Alpha  occ. eigenvalues --   -0.81567  -0.80364  -0.78896  -0.77672  -0.76924
 Alpha  occ. eigenvalues --   -0.75162  -0.74885  -0.74553  -0.73847  -0.72200
 Alpha  occ. eigenvalues --   -0.71327  -0.70847  -0.70362  -0.68482  -0.68030
 Alpha  occ. eigenvalues --   -0.67434  -0.67097  -0.66459  -0.65745  -0.65690
 Alpha  occ. eigenvalues --   -0.65307  -0.64499  -0.64075  -0.64054  -0.63574
 Alpha  occ. eigenvalues --   -0.62961  -0.62015  -0.60748  -0.59675  -0.59176
 Alpha  occ. eigenvalues --   -0.58480  -0.58311  -0.57894  -0.57382  -0.56908
 Alpha  occ. eigenvalues --   -0.56410  -0.55963  -0.55497  -0.55144  -0.54567
 Alpha  occ. eigenvalues --   -0.54143  -0.53784  -0.53505  -0.53161  -0.52958
 Alpha  occ. eigenvalues --   -0.52830  -0.52200  -0.52054  -0.51933  -0.51259
 Alpha  occ. eigenvalues --   -0.50999  -0.50689  -0.50441  -0.50408  -0.49977
 Alpha  occ. eigenvalues --   -0.49750  -0.49195  -0.49134  -0.48821  -0.48441
 Alpha  occ. eigenvalues --   -0.48326  -0.47894  -0.47554  -0.46957  -0.46770
 Alpha  occ. eigenvalues --   -0.46453  -0.46422  -0.45951  -0.45788  -0.45461
 Alpha  occ. eigenvalues --   -0.45405  -0.44804  -0.44539  -0.44391  -0.44133
 Alpha  occ. eigenvalues --   -0.43710  -0.43572  -0.42716  -0.42599  -0.42321
 Alpha  occ. eigenvalues --   -0.42297  -0.42260  -0.41094  -0.41091  -0.40492
 Alpha  occ. eigenvalues --   -0.40453  -0.40206  -0.39675  -0.39148  -0.39024
 Alpha  occ. eigenvalues --   -0.38663  -0.38563  -0.38460  -0.37886  -0.37251
 Alpha  occ. eigenvalues --   -0.35527  -0.35137  -0.35044  -0.34952  -0.34046
 Alpha  occ. eigenvalues --   -0.33406  -0.33278  -0.33032  -0.32752  -0.32513
 Alpha  occ. eigenvalues --   -0.32348  -0.31358  -0.31085  -0.29179  -0.28040
 Alpha virt. eigenvalues --   -0.13114  -0.11901  -0.10958  -0.07442  -0.06967
 Alpha virt. eigenvalues --   -0.05551  -0.04972  -0.04850  -0.04499  -0.03770
 Alpha virt. eigenvalues --   -0.03084  -0.01975  -0.01028  -0.00185   0.00435

 Mulliken charges:
               1
     1  N   -0.752492
     2  H    0.419034
     3  H    0.416387
     4  H    0.436839
     5  C   -0.119432
     6  H    0.216122
     7  C    0.654453
     8  C   -0.377361
     9  H    0.187197
    10  H    0.209763
    11  O   -0.536573
    12  C    0.579421
    13  N   -0.738360
    14  H    0.393570
    15  H    0.347892
    16  O   -0.468687
    17  N   -0.581720
    18  H    0.371698
    19  C   -0.080540
    20  H    0.191361
    21  C    0.660574
    22  C   -0.074306
    23  H    0.144417
    24  O   -0.585164
    25  C   -0.257597
    26  H    0.155394
    27  H    0.115065
    28  C   -0.487755
    29  H    0.149405
    30  H    0.170512
    31  H    0.187240
    32  C   -0.469909
    33  H    0.154003
    34  H    0.161942
    35  H    0.162077
    36  N   -0.583355
    37  H    0.362369
    38  C   -0.067791
    39  H    0.180653
    40  C    0.650770
    41  C   -0.444702
    42  H    0.163712
    43  H    0.177464
    44  H    0.174010
    45  O   -0.576761
    46  N   -0.599895
    47  H    0.359284
    48  C   -0.097292
    49  H    0.175804
    50  C    0.616091
    51  C    0.163131
    52  H    0.147829
    53  O   -0.540169
    54  C   -0.479814
    55  H    0.164126
    56  H    0.174320
    57  H    0.148182
    58  O   -0.641568
    59  H    0.414036
    60  N   -0.615087
    61  H    0.365597
    62  C   -0.072134
    63  H    0.192688
    64  C    0.604547
    65  C   -0.031362
    66  H    0.150252
    67  H    0.162941
    68  O   -0.527592
    69  O   -0.665986
    70  H    0.446461
    71  N   -0.600162
    72  H    0.354797
    73  C   -0.242090
    74  H    0.224585
    75  H    0.190111
    76  C    0.602981
    77  O   -0.517720
    78  N   -0.652847
    79  H    0.360169
    80  C   -0.003358
    81  H    0.196650
    82  C    0.590406
    83  C   -0.285573
    84  H    0.186394
    85  H    0.140959
    86  O   -0.586806
    87  C   -0.288052
    88  H    0.169296
    89  H    0.151036
    90  C   -0.291793
    91  H    0.155676
    92  H    0.154309
    93  C   -0.144633
    94  H    0.168914
    95  H    0.150099
    96  N   -0.780932
    97  H    0.336069
    98  H    0.460991
    99  H    0.340193
   100  O   -0.544899
 Sum of Mulliken charges =   1.00000

 Dipole moment (field-independent basis, Debye):
    X=            -28.1820    Y=              2.8275    Z=              2.9400  Tot=             28.4756
 Quadrupole moment (field-independent basis, Debye-Ang):
   XX=             -0.2221   YY=           -264.1285   ZZ=           -117.1845
   XY=            -69.2268   XZ=           -183.6297   YZ=             43.2056

 Normal termination of Gaussian 16 at Wed Jun 29 00:45:16 2022.
