 Gaussian 16, Revision C.01,
 Gaussian 16:  ES64L-G16RevC.01  3-Jul-2019

 ----------------------------------------------------------------------
 # B3LYP/6-31G* empiricaldispersion=gd3bj guess=read geom=check nosymm
 integral(ultrafinegrid)
 ----------------------------------------------------------------------

 ------------------------------------------------------
 Candidate Structure: Conf:879 Charge calc in gas phase
 ------------------------------------------------------
 Structure from the checkpoint file:  "conf-879.chk"
 Charge =  1 Multiplicity = 1

                          Input orientation:
 ---------------------------------------------------------------------
 Center     Atomic      Atomic             Coordinates (Angstroms)
 Number     Number       Type             X           Y           Z
 ---------------------------------------------------------------------
      1          7           0       -5.157252    0.463600    6.992881
      2          1           0       -4.537738    0.204556    7.766120
      3          1           0       -6.128448    0.342978    7.291045
      4          1           0       -4.948267    1.479958    6.711873
      5          6           0       -4.823694   -0.245208    5.698444
      6          1           0       -4.231952   -1.133313    5.924739
      7          6           0       -3.979513    0.831377    4.955056
      8          6           0       -6.122963   -0.607638    4.947263
      9          1           0       -6.592828   -1.476004    5.423962
     10          1           0       -6.815776    0.237897    4.975820
     11          8           0       -4.081257    1.999125    5.366064
     12          6           0       -5.813005   -0.847733    3.458825
     13          7           0       -5.181277   -2.027091    3.188563
     14          1           0       -4.859838   -2.167379    2.236362
     15          1           0       -5.296318   -2.845242    3.770560
     16          8           0       -5.982677    0.039722    2.644514
     17          7           0       -3.240732    0.397633    3.951395
     18          1           0       -3.300891   -0.574835    3.647070
     19          6           0       -2.600702    1.256794    2.954848
     20          1           0       -3.122173    2.216248    2.957380
     21          6           0       -2.812156    0.519165    1.627812
     22          6           0       -1.091325    1.460382    3.282526
     23          1           0       -1.090840    1.921473    4.280600
     24          8           0       -2.957279   -0.710521    1.616901
     25          6           0       -0.384751    2.434255    2.323083
     26          1           0       -0.319700    1.997599    1.318906
     27          1           0        0.651617    2.498081    2.668892
     28          6           0       -0.337304    0.129675    3.359448
     29          1           0       -0.317739   -0.363969    2.383139
     30          1           0        0.707469    0.318817    3.620220
     31          1           0       -0.786805   -0.553383    4.090724
     32          6           0       -0.995818    3.837554    2.260556
     33          1           0       -0.373970    4.500759    1.650845
     34          1           0       -2.006349    3.863924    1.826121
     35          1           0       -1.073121    4.280961    3.260472
     36          7           0       -2.794815    1.273254    0.512992
     37          1           0       -2.530974    2.247133    0.598086
     38          6           0       -2.689518    0.680305   -0.827224
     39          1           0       -3.318594   -0.212213   -0.825446
     40          6           0       -1.207864    0.301172   -1.006653
     41          6           0       -3.153577    1.675287   -1.881195
     42          1           0       -3.124303    1.211631   -2.871501
     43          1           0       -4.177737    2.000222   -1.677685
     44          1           0       -2.487877    2.543294   -1.899077
     45          8           0       -0.376736    1.185171   -1.260314
     46          7           0       -0.912116   -0.993000   -0.791776
     47          1           0       -1.651954   -1.585909   -0.418905
     48          6           0        0.413772   -1.475982   -0.377320
     49          1           0        0.852512   -0.751687    0.325601
     50          6           0        1.430960   -1.595984   -1.516176
     51          6           0        0.224679   -2.846014    0.340152
     52          1           0        0.197304   -3.633244   -0.417212
     53          8           0        2.167364   -2.584269   -1.632567
     54          6           0        1.342379   -3.122671    1.336220
     55          1           0        2.296278   -3.202285    0.810668
     56          1           0        1.142238   -4.065711    1.854146
     57          1           0        1.435278   -2.307830    2.060742
     58          8           0       -1.069119   -2.910082    0.956595
     59          1           0       -1.102384   -2.258880    1.678009
     60          7           0        1.519148   -0.524883   -2.338018
     61          1           0        0.988207    0.313464   -2.081532
     62          6           0        2.447605   -0.506256   -3.459302
     63          1           0        2.524158   -1.529779   -3.839276
     64          6           0        3.841392   -0.069902   -2.974207
     65          6           0        1.931941    0.382836   -4.581395
     66          1           0        2.027838    1.437492   -4.288832
     67          1           0        0.866835    0.158362   -4.740293
     68          8           0        4.334593    1.026797   -3.278972
     69          8           0        2.714978    0.077170   -5.722263
     70          1           0        2.591466    0.779815   -6.376534
     71          7           0        4.439747   -0.954650   -2.154087
     72          1           0        3.910706   -1.797886   -1.920868
     73          6           0        5.688424   -0.645148   -1.488403
     74          1           0        6.029373   -1.542542   -0.963989
     75          1           0        6.456820   -0.377974   -2.218617
     76          6           0        5.613102    0.512426   -0.479387
     77          8           0        6.625340    1.234666   -0.331849
     78          7           0        4.459903    0.681740    0.155368
     79          1           0        3.700227   -0.007296    0.073299
     80          6           0        4.199216    1.508512    1.338805
     81          1           0        5.054094    1.435622    2.019772
     82          6           0        2.940197    0.871368    2.032294
     83          6           0        3.905295    2.989720    1.050561
     84          1           0        3.115897    3.033047    0.287228
     85          1           0        3.455493    3.372946    1.969710
     86          8           0        2.594752    1.400592    3.105098
     87          6           0        5.120867    3.863538    0.655005
     88          1           0        5.327387    4.585942    1.452165
     89          1           0        6.014793    3.238424    0.579940
     90          6           0        4.921303    4.659806   -0.645763
     91          1           0        5.774130    5.330922   -0.817952
     92          1           0        4.040404    5.307350   -0.549343
     93          6           0        4.689504    3.799107   -1.881217
     94          1           0        3.898259    3.066214   -1.719394
     95          1           0        4.423649    4.397582   -2.756153
     96          7           0        5.896804    2.983851   -2.265929
     97          1           0        6.615833    3.543076   -2.728613
     98          1           0        5.564556    2.208882   -2.881439
     99          1           0        6.321979    2.486003   -1.440375
    100          8           0        2.402199   -0.086675    1.400878
 ---------------------------------------------------------------------

 SCF Done:  E(RB3LYP) =  -2418.64430712     A.U. after    2 cycles

 Alpha  occ. eigenvalues --  -19.26550 -19.23318 -19.22077 -19.21059 -19.20991
 Alpha  occ. eigenvalues --  -19.20877 -19.20001 -19.18778 -19.18580 -19.12820
 Alpha  occ. eigenvalues --  -19.11693 -14.60305 -14.50973 -14.48689 -14.47366
 Alpha  occ. eigenvalues --  -14.46041 -14.43574 -14.43272 -14.42300 -14.41504
 Alpha  occ. eigenvalues --  -10.43136 -10.41617 -10.41422 -10.38880 -10.36933
 Alpha  occ. eigenvalues --  -10.36609 -10.35749 -10.35591 -10.34977 -10.32972
 Alpha  occ. eigenvalues --  -10.32326 -10.31982 -10.30359 -10.30202 -10.30189
 Alpha  occ. eigenvalues --  -10.30127 -10.29542 -10.28598 -10.27044 -10.26871
 Alpha  occ. eigenvalues --  -10.26497 -10.26042 -10.24405 -10.24252 -10.23571
 Alpha  occ. eigenvalues --  -10.23552 -10.22556 -10.21407  -1.19210  -1.15397
 Alpha  occ. eigenvalues --   -1.14239  -1.13711  -1.12280  -1.11611  -1.10331
 Alpha  occ. eigenvalues --   -1.10057  -1.08389  -1.08322  -1.06286  -1.05827
 Alpha  occ. eigenvalues --   -1.05636  -1.02477  -1.02268  -1.00609  -0.99772
 Alpha  occ. eigenvalues --   -0.98851  -0.98185  -0.96439  -0.93948  -0.89426
 Alpha  occ. eigenvalues --   -0.87473  -0.86098  -0.84531  -0.83778  -0.82734
 Alpha  occ. eigenvalues --   -0.82018  -0.81031  -0.79780  -0.78234  -0.76438
 Alpha  occ. eigenvalues --   -0.76130  -0.74517  -0.74158  -0.73122  -0.71958
 Alpha  occ. eigenvalues --   -0.71386  -0.70494  -0.70356  -0.69408  -0.68755
 Alpha  occ. eigenvalues --   -0.68282  -0.66910  -0.66570  -0.65776  -0.65621
 Alpha  occ. eigenvalues --   -0.65172  -0.64707  -0.64509  -0.64234  -0.64010
 Alpha  occ. eigenvalues --   -0.63057  -0.62812  -0.61778  -0.61150  -0.59898
 Alpha  occ. eigenvalues --   -0.59512  -0.58589  -0.58548  -0.58193  -0.57777
 Alpha  occ. eigenvalues --   -0.57055  -0.56531  -0.56071  -0.55834  -0.55554
 Alpha  occ. eigenvalues --   -0.54971  -0.54431  -0.54169  -0.53441  -0.53164
 Alpha  occ. eigenvalues --   -0.52830  -0.52583  -0.52150  -0.51802  -0.51608
 Alpha  occ. eigenvalues --   -0.51587  -0.51093  -0.50840  -0.50159  -0.50083
 Alpha  occ. eigenvalues --   -0.49635  -0.49464  -0.49123  -0.48893  -0.48756
 Alpha  occ. eigenvalues --   -0.48347  -0.48021  -0.47740  -0.47411  -0.47106
 Alpha  occ. eigenvalues --   -0.47092  -0.46593  -0.46323  -0.45898  -0.45728
 Alpha  occ. eigenvalues --   -0.45344  -0.44758  -0.44513  -0.44280  -0.44252
 Alpha  occ. eigenvalues --   -0.43866  -0.43252  -0.42903  -0.42791  -0.42464
 Alpha  occ. eigenvalues --   -0.41838  -0.41710  -0.41389  -0.41178  -0.40523
 Alpha  occ. eigenvalues --   -0.40114  -0.39782  -0.39389  -0.39239  -0.39083
 Alpha  occ. eigenvalues --   -0.38833  -0.38412  -0.37611  -0.37334  -0.36998
 Alpha  occ. eigenvalues --   -0.36472  -0.35959  -0.35594  -0.35420  -0.34727
 Alpha  occ. eigenvalues --   -0.33666  -0.33359  -0.33167  -0.32314  -0.31995
 Alpha  occ. eigenvalues --   -0.31501  -0.31259  -0.27801  -0.27499  -0.25810
 Alpha virt. eigenvalues --   -0.12281  -0.11348  -0.10679  -0.08302  -0.06804
 Alpha virt. eigenvalues --   -0.06388  -0.05810  -0.05697  -0.04435  -0.04254
 Alpha virt. eigenvalues --   -0.03075  -0.02432  -0.01166  -0.00782   0.00259

 Mulliken charges:
               1
     1  N   -0.756351
     2  H    0.418414
     3  H    0.414326
     4  H    0.437230
     5  C   -0.115756
     6  H    0.218923
     7  C    0.652669
     8  C   -0.375896
     9  H    0.186571
    10  H    0.208716
    11  O   -0.544991
    12  C    0.566646
    13  N   -0.739808
    14  H    0.389641
    15  H    0.349008
    16  O   -0.456086
    17  N   -0.585856
    18  H    0.385976
    19  C   -0.083674
    20  H    0.193625
    21  C    0.658202
    22  C   -0.077582
    23  H    0.144717
    24  O   -0.580648
    25  C   -0.314596
    26  H    0.152609
    27  H    0.216742
    28  C   -0.489469
    29  H    0.142861
    30  H    0.240403
    31  H    0.102354
    32  C   -0.467114
    33  H    0.161457
    34  H    0.116119
    35  H    0.157986
    36  N   -0.595726
    37  H    0.361302
    38  C   -0.054169
    39  H    0.179359
    40  C    0.642990
    41  C   -0.472561
    42  H    0.174055
    43  H    0.170730
    44  H    0.177162
    45  O   -0.570078
    46  N   -0.610439
    47  H    0.373818
    48  C   -0.142898
    49  H    0.264764
    50  C    0.643070
    51  C    0.118578
    52  H    0.165364
    53  O   -0.554649
    54  C   -0.480643
    55  H    0.171563
    56  H    0.146340
    57  H    0.182037
    58  O   -0.654458
    59  H    0.407016
    60  N   -0.641138
    61  H    0.392475
    62  C   -0.079412
    63  H    0.206689
    64  C    0.664631
    65  C   -0.034133
    66  H    0.136089
    67  H    0.140383
    68  O   -0.585580
    69  O   -0.614034
    70  H    0.403822
    71  N   -0.602701
    72  H    0.393471
    73  C   -0.221351
    74  H    0.201833
    75  H    0.183813
    76  C    0.581010
    77  O   -0.584772
    78  N   -0.579191
    79  H    0.365133
    80  C   -0.058040
    81  H    0.171284
    82  C    0.603471
    83  C   -0.284367
    84  H    0.129892
    85  H    0.183803
    86  O   -0.575670
    87  C   -0.296779
    88  H    0.154857
    89  H    0.179097
    90  C   -0.286162
    91  H    0.146158
    92  H    0.167188
    93  C   -0.181483
    94  H    0.211881
    95  H    0.182041
    96  N   -0.792475
    97  H    0.382678
    98  H    0.431653
    99  H    0.442803
   100  O   -0.608762
 Sum of Mulliken charges =   1.00000

 Dipole moment (field-independent basis, Debye):
    X=            -13.0002    Y=              5.0807    Z=             14.0784  Tot=             19.8247
 Quadrupole moment (field-independent basis, Debye-Ang):
   XX=           -129.1068   YY=           -249.3278   ZZ=           -102.6122
   XY=             49.2035   XZ=           -165.7859   YZ=            -40.4060

 Normal termination of Gaussian 16 at Wed Jun 29 00:44:55 2022.
