 Gaussian 16, Revision C.01,
 Gaussian 16:  ES64L-G16RevC.01  3-Jul-2019

 ----------------------------------------------------------------------
 # B3LYP/6-31G* empiricaldispersion=gd3bj guess=read geom=check nosymm
 integral(ultrafinegrid)
 ----------------------------------------------------------------------

 ------------------------------------------------------
 Candidate Structure: Conf:234 Charge calc in gas phase
 ------------------------------------------------------
 Structure from the checkpoint file:  "conf-234.chk"
 Charge =  1 Multiplicity = 1

                          Input orientation:
 ---------------------------------------------------------------------
 Center     Atomic      Atomic             Coordinates (Angstroms)
 Number     Number       Type             X           Y           Z
 ---------------------------------------------------------------------
      1          7           0       -5.347613    0.104844   -2.143668
      2          1           0       -6.171377   -0.338507   -1.732148
      3          1           0       -5.190400   -0.231493   -3.165596
      4          1           0       -5.451636    1.128380   -2.031297
      5          6           0       -4.079454   -0.257625   -1.420638
      6          1           0       -4.191473   -1.274175   -1.034380
      7          6           0       -3.935351    0.778748   -0.293894
      8          6           0       -2.898293   -0.172997   -2.404854
      9          1           0       -2.734303    0.877489   -2.673324
     10          1           0       -1.966521   -0.502476   -1.934964
     11          8           0       -4.550258    1.839058   -0.383482
     12          6           0       -3.170850   -0.963173   -3.683399
     13          7           0       -2.142838   -1.627263   -4.197284
     14          1           0       -2.291675   -2.131390   -5.062415
     15          1           0       -1.226610   -1.646274   -3.711856
     16          8           0       -4.309812   -0.948811   -4.211775
     17          7           0       -3.125224    0.434515    0.728236
     18          1           0       -2.518562   -0.361497    0.558344
     19          6           0       -2.499395    1.477646    1.538889
     20          1           0       -3.283697    2.172454    1.850470
     21          6           0       -1.523995    2.228874    0.598869
     22          6           0       -1.856261    0.801722    2.776724
     23          1           0       -1.155089    0.052402    2.388761
     24          8           0       -1.284213    1.791775   -0.525262
     25          6           0       -2.925736    0.063984    3.613214
     26          1           0       -2.400423   -0.470391    4.414738
     27          1           0       -3.400531   -0.705315    2.993839
     28          6           0       -1.032960    1.762548    3.645445
     29          1           0       -1.599026    2.655632    3.938835
     30          1           0       -0.740995    1.258271    4.572677
     31          1           0       -0.118264    2.077196    3.137466
     32          6           0       -4.011798    0.953330    4.225980
     33          1           0       -4.694373    0.353460    4.836249
     34          1           0       -3.589442    1.727895    4.875037
     35          1           0       -4.616909    1.449956    3.458840
     36          7           0       -0.980810    3.384505    1.046930
     37          1           0       -1.143378    3.682664    1.998309
     38          6           0        0.059081    4.083468    0.283733
     39          1           0       -0.191771    3.929992   -0.770333
     40          6           0        1.430612    3.425666    0.553304
     41          6           0        0.069036    5.565594    0.629732
     42          1           0        0.827722    6.085442    0.040271
     43          1           0       -0.908950    6.008007    0.420656
     44          1           0        0.321309    5.719484    1.683353
     45          8           0        2.344761    4.032614    1.125808
     46          7           0        1.540888    2.143216    0.151521
     47          1           0        0.838279    1.706010   -0.450740
     48          6           0        2.659874    1.314085    0.573542
     49          1           0        3.031618    1.745250    1.513050
     50          6           0        3.814427    1.420322   -0.434983
     51          6           0        2.187244   -0.127058    0.843303
     52          1           0        1.795529   -0.545742   -0.084109
     53          8           0        4.266363    0.471863   -1.078651
     54          6           0        3.289261   -1.013740    1.411928
     55          1           0        4.108370   -1.128250    0.700087
     56          1           0        2.877822   -1.999752    1.646384
     57          1           0        3.696224   -0.583138    2.337713
     58          8           0        1.063637   -0.088636    1.731077
     59          1           0        1.398380    0.140973    2.613339
     60          7           0        4.293843    2.687891   -0.579091
     61          1           0        3.973316    3.378081    0.102210
     62          6           0        5.547319    2.922925   -1.286912
     63          1           0        5.673835    4.010943   -1.330838
     64          6           0        5.463617    2.407384   -2.726723
     65          6           0        6.758627    2.347414   -0.552228
     66          1           0        7.664168    2.598709   -1.118734
     67          1           0        6.673601    1.254659   -0.504831
     68          8           0        6.409313    1.812619   -3.260286
     69          8           0        6.740884    2.942198    0.736205
     70          1           0        7.522978    2.640667    1.221281
     71          7           0        4.326231    2.722422   -3.385411
     72          1           0        3.577509    3.134215   -2.842415
     73          6           0        4.074674    2.253033   -4.735882
     74          1           0        3.313257    2.891364   -5.194093
     75          1           0        4.989171    2.344898   -5.323091
     76          6           0        3.615355    0.785143   -4.818707
     77          8           0        4.021211    0.070201   -5.759249
     78          7           0        2.814370    0.389236   -3.839653
     79          1           0        2.514514    1.041150   -3.110326
     80          6           0        2.050861   -0.848172   -3.693525
     81          1           0        1.632415   -1.133001   -4.664915
     82          6           0        0.893535   -0.492812   -2.703099
     83          6           0        2.859263   -2.019608   -3.105230
     84          1           0        3.340207   -1.651814   -2.191818
     85          1           0        2.125626   -2.767572   -2.791992
     86          8           0       -0.001866   -1.366785   -2.559229
     87          6           0        3.893133   -2.661337   -4.063047
     88          1           0        3.571028   -3.675298   -4.323782
     89          1           0        3.920041   -2.106505   -5.005503
     90          6           0        5.307335   -2.763786   -3.466736
     91          1           0        5.954207   -3.360607   -4.124979
     92          1           0        5.263687   -3.306287   -2.514079
     93          6           0        5.974358   -1.424652   -3.172282
     94          1           0        5.336096   -0.763837   -2.583742
     95          1           0        6.915685   -1.552584   -2.631726
     96          7           0        6.312237   -0.660453   -4.430231
     97          1           0        6.555672    0.317819   -4.159659
     98          1           0        5.484974   -0.564899   -5.068153
     99          1           0        7.081856   -1.090845   -4.947641
    100          8           0        1.000957    0.606802   -2.107485
 ---------------------------------------------------------------------

 SCF Done:  E(RB3LYP) =  -2418.69948500     A.U. after    3 cycles

 Alpha  occ. eigenvalues --  -19.23273 -19.22892 -19.22630 -19.22336 -19.22152
 Alpha  occ. eigenvalues --  -19.21400 -19.20621 -19.20157 -19.19619 -19.16762
 Alpha  occ. eigenvalues --  -19.16350 -14.53317 -14.52451 -14.46705 -14.46274
 Alpha  occ. eigenvalues --  -14.44854 -14.44425 -14.43804 -14.43663 -14.42739
 Alpha  occ. eigenvalues --  -10.40038 -10.39706 -10.39000 -10.37847 -10.37760
 Alpha  occ. eigenvalues --  -10.37283 -10.36773 -10.36241 -10.34546 -10.32989
 Alpha  occ. eigenvalues --  -10.32639 -10.32479 -10.32292 -10.31382 -10.31285
 Alpha  occ. eigenvalues --  -10.31217 -10.30917 -10.29584 -10.29526 -10.28230
 Alpha  occ. eigenvalues --  -10.27890 -10.26147 -10.25971 -10.25828 -10.25478
 Alpha  occ. eigenvalues --  -10.25466 -10.24815 -10.24620  -1.15619  -1.14633
 Alpha  occ. eigenvalues --   -1.13522  -1.12987  -1.12492  -1.12192  -1.11101
 Alpha  occ. eigenvalues --   -1.09974  -1.09818  -1.09747  -1.08206  -1.07635
 Alpha  occ. eigenvalues --   -1.03457  -1.03308  -1.01964  -1.01213  -1.01112
 Alpha  occ. eigenvalues --   -0.99797  -0.99313  -0.99189  -0.90484  -0.88901
 Alpha  occ. eigenvalues --   -0.88409  -0.87041  -0.85527  -0.84543  -0.83917
 Alpha  occ. eigenvalues --   -0.81703  -0.81628  -0.79898  -0.78391  -0.78011
 Alpha  occ. eigenvalues --   -0.77151  -0.73606  -0.73035  -0.72429  -0.71552
 Alpha  occ. eigenvalues --   -0.70529  -0.69957  -0.69169  -0.68846  -0.68518
 Alpha  occ. eigenvalues --   -0.68011  -0.67503  -0.66916  -0.66365  -0.66166
 Alpha  occ. eigenvalues --   -0.65902  -0.65663  -0.65256  -0.64244  -0.63017
 Alpha  occ. eigenvalues --   -0.62493  -0.62343  -0.61772  -0.60888  -0.59951
 Alpha  occ. eigenvalues --   -0.59544  -0.58896  -0.58734  -0.57868  -0.57525
 Alpha  occ. eigenvalues --   -0.57118  -0.56667  -0.56185  -0.56087  -0.55745
 Alpha  occ. eigenvalues --   -0.55645  -0.54967  -0.54449  -0.54285  -0.53972
 Alpha  occ. eigenvalues --   -0.53609  -0.53110  -0.52825  -0.52422  -0.51763
 Alpha  occ. eigenvalues --   -0.51462  -0.51277  -0.51065  -0.50844  -0.50778
 Alpha  occ. eigenvalues --   -0.50296  -0.50140  -0.50042  -0.49672  -0.49519
 Alpha  occ. eigenvalues --   -0.49196  -0.48793  -0.48698  -0.47976  -0.47650
 Alpha  occ. eigenvalues --   -0.47606  -0.47383  -0.46979  -0.46771  -0.46635
 Alpha  occ. eigenvalues --   -0.46469  -0.46216  -0.46060  -0.45933  -0.45675
 Alpha  occ. eigenvalues --   -0.45158  -0.44921  -0.44702  -0.44564  -0.44459
 Alpha  occ. eigenvalues --   -0.43992  -0.43706  -0.43535  -0.42109  -0.41705
 Alpha  occ. eigenvalues --   -0.41407  -0.41039  -0.40726  -0.40488  -0.40401
 Alpha  occ. eigenvalues --   -0.39397  -0.38280  -0.37851  -0.37476  -0.36595
 Alpha  occ. eigenvalues --   -0.36390  -0.36315  -0.36040  -0.35822  -0.35158
 Alpha  occ. eigenvalues --   -0.35013  -0.34642  -0.34222  -0.34015  -0.33593
 Alpha  occ. eigenvalues --   -0.32426  -0.32110  -0.31831  -0.31064  -0.30437
 Alpha virt. eigenvalues --   -0.09344  -0.08671  -0.08035  -0.07702  -0.07381
 Alpha virt. eigenvalues --   -0.06886  -0.05308  -0.04793  -0.04266  -0.02226
 Alpha virt. eigenvalues --   -0.02063  -0.01532  -0.00977   0.00004   0.00568

 Mulliken charges:
               1
     1  N   -0.759581
     2  H    0.394432
     3  H    0.446883
     4  H    0.405600
     5  C   -0.139897
     6  H    0.202289
     7  C    0.659565
     8  C   -0.403615
     9  H    0.219044
    10  H    0.251661
    11  O   -0.525598
    12  C    0.621748
    13  N   -0.755596
    14  H    0.349960
    15  H    0.419888
    16  O   -0.578762
    17  N   -0.582018
    18  H    0.354687
    19  C   -0.090389
    20  H    0.193871
    21  C    0.650212
    22  C   -0.105506
    23  H    0.173442
    24  O   -0.536562
    25  C   -0.251256
    26  H    0.146710
    27  H    0.138750
    28  C   -0.502957
    29  H    0.150029
    30  H    0.164742
    31  H    0.160929
    32  C   -0.462829
    33  H    0.162999
    34  H    0.154641
    35  H    0.151094
    36  N   -0.599800
    37  H    0.341191
    38  C   -0.062151
    39  H    0.190651
    40  C    0.608972
    41  C   -0.456121
    42  H    0.172483
    43  H    0.162825
    44  H    0.168839
    45  O   -0.550845
    46  N   -0.625308
    47  H    0.437681
    48  C   -0.088396
    49  H    0.174235
    50  C    0.647333
    51  C    0.115471
    52  H    0.190717
    53  O   -0.545700
    54  C   -0.485996
    55  H    0.176739
    56  H    0.167713
    57  H    0.134896
    58  O   -0.626167
    59  H    0.390518
    60  N   -0.628551
    61  H    0.389629
    62  C   -0.077526
    63  H    0.197192
    64  C    0.665514
    65  C   -0.024491
    66  H    0.151017
    67  H    0.148146
    68  O   -0.588001
    69  O   -0.624919
    70  H    0.407788
    71  N   -0.579064
    72  H    0.356822
    73  C   -0.233260
    74  H    0.200291
    75  H    0.198133
    76  C    0.583281
    77  O   -0.575352
    78  N   -0.564407
    79  H    0.363591
    80  C   -0.061100
    81  H    0.161424
    82  C    0.622863
    83  C   -0.296293
    84  H    0.169914
    85  H    0.174170
    86  O   -0.610172
    87  C   -0.298039
    88  H    0.155909
    89  H    0.174055
    90  C   -0.285184
    91  H    0.145441
    92  H    0.172617
    93  C   -0.222248
    94  H    0.257742
    95  H    0.183290
    96  N   -0.798197
    97  H    0.439014
    98  H    0.438775
    99  H    0.385088
   100  O   -0.593293
 Sum of Mulliken charges =   1.00000

 Dipole moment (field-independent basis, Debye):
    X=              5.5563    Y=              0.9628    Z=             -6.7983  Tot=              8.8327
 Quadrupole moment (field-independent basis, Debye-Ang):
   XX=           -117.9639   YY=           -256.7555   ZZ=           -228.7635
   XY=             -2.8977   XZ=            -39.4781   YZ=              5.4408

 Normal termination of Gaussian 16 at Wed Jun 29 00:46:18 2022.
