 Gaussian 16, Revision C.01,
 Gaussian 16:  ES64L-G16RevC.01  3-Jul-2019

 ----------------------------------------------------------------------
 # B3LYP/6-31G* empiricaldispersion=gd3bj guess=read geom=check nosymm
 integral(ultrafinegrid)
 ----------------------------------------------------------------------

 ------------------------------------------------------
 Candidate Structure: Conf:807 Charge calc in gas phase
 ------------------------------------------------------
 Structure from the checkpoint file:  "conf-807.chk"
 Charge =  1 Multiplicity = 1

                          Input orientation:
 ---------------------------------------------------------------------
 Center     Atomic      Atomic             Coordinates (Angstroms)
 Number     Number       Type             X           Y           Z
 ---------------------------------------------------------------------
      1          7           0       -7.600227    1.590559    1.250289
      2          1           0       -8.338241    1.953420    1.860096
      3          1           0       -8.016673    0.939157    0.580441
      4          1           0       -7.128183    2.411117    0.755314
      5          6           0       -6.434373    1.007544    2.018286
      6          1           0       -6.747490    0.753984    3.030934
      7          6           0       -5.407341    2.169029    1.980563
      8          6           0       -5.898495   -0.234022    1.294629
      9          1           0       -6.723200   -0.934596    1.105184
     10          1           0       -5.454894    0.052325    0.335794
     11          8           0       -5.584719    3.051026    1.127236
     12          6           0       -4.843471   -0.954140    2.154900
     13          7           0       -4.190638   -1.945800    1.537072
     14          1           0       -3.319785   -2.308295    1.945183
     15          1           0       -4.253803   -2.026068    0.530990
     16          8           0       -4.688168   -0.643213    3.341218
     17          7           0       -4.407553    2.096514    2.854296
     18          1           0       -4.355399    1.199287    3.348210
     19          6           0       -3.122511    2.730145    2.568976
     20          1           0       -3.300232    3.772134    2.289995
     21          6           0       -2.522960    1.973292    1.358737
     22          6           0       -2.254102    2.658013    3.853783
     23          1           0       -2.178135    1.594266    4.117189
     24          8           0       -2.993150    0.883848    1.006178
     25          6           0       -2.961835    3.368194    5.029970
     26          1           0       -2.347108    3.205020    5.923401
     27          1           0       -3.920570    2.874891    5.226456
     28          6           0       -0.824222    3.182064    3.660331
     29          1           0       -0.808136    4.193268    3.234983
     30          1           0       -0.324233    3.239330    4.632089
     31          1           0       -0.222851    2.527919    3.024646
     32          6           0       -3.196873    4.870029    4.843756
     33          1           0       -3.658845    5.294599    5.740553
     34          1           0       -2.261813    5.412867    4.670530
     35          1           0       -3.869438    5.080424    4.004022
     36          7           0       -1.481107    2.547659    0.734515
     37          1           0       -1.099839    3.409903    1.100321
     38          6           0       -0.666403    1.821000   -0.254089
     39          1           0       -1.351532    1.217639   -0.852156
     40          6           0        0.283615    0.869577    0.503183
     41          6           0        0.096366    2.788065   -1.143435
     42          1           0        0.583391    2.216624   -1.935566
     43          1           0       -0.593690    3.506071   -1.596984
     44          1           0        0.865125    3.321226   -0.576383
     45          8           0        1.485454    1.105252    0.629679
     46          7           0       -0.320720   -0.209033    1.064208
     47          1           0       -1.296893   -0.387458    0.852534
     48          6           0        0.436373   -1.276744    1.713387
     49          1           0        1.269117   -0.816072    2.253007
     50          6           0        0.969535   -2.170327    0.575804
     51          6           0       -0.451508   -2.059177    2.694988
     52          1           0        0.185965   -2.824968    3.160648
     53          8           0        0.393986   -3.215822    0.244138
     54          6           0       -1.065179   -1.179636    3.772466
     55          1           0       -0.287214   -0.654224    4.336313
     56          1           0       -1.650457   -1.790932    4.464788
     57          1           0       -1.736367   -0.443657    3.321950
     58          8           0       -1.517558   -2.697458    1.989463
     59          1           0       -1.067952   -3.195438    1.264434
     60          7           0        2.019275   -1.647384   -0.095754
     61          1           0        2.325161   -0.728748    0.218477
     62          6           0        2.157267   -1.901586   -1.523667
     63          1           0        1.352839   -2.585838   -1.796424
     64          6           0        3.501516   -2.473220   -1.957774
     65          6           0        1.926558   -0.574022   -2.296667
     66          1           0        2.355080   -0.655347   -3.300689
     67          1           0        2.445398    0.235190   -1.774295
     68          8           0        4.551768   -1.861083   -1.847382
     69          8           0        0.553291   -0.263044   -2.355927
     70          1           0        0.212226   -0.833907   -3.089102
     71          7           0        3.394076   -3.673241   -2.632307
     72          1           0        2.482273   -4.111666   -2.646153
     73          6           0        4.333310   -4.056058   -3.660970
     74          1           0        5.257664   -3.497998   -3.485418
     75          1           0        4.574597   -5.122471   -3.615776
     76          6           0        3.840348   -3.745485   -5.085559
     77          8           0        4.504513   -4.221466   -6.043823
     78          7           0        2.755823   -2.996204   -5.155233
     79          1           0        2.264554   -2.755069   -4.286615
     80          6           0        1.944622   -2.455175   -6.244243
     81          1           0        2.374575   -1.490940   -6.546660
     82          6           0        0.532161   -2.131973   -5.595551
     83          6           0        1.818498   -3.334582   -7.480707
     84          1           0        1.093511   -2.831527   -8.126450
     85          1           0        2.773295   -3.337936   -8.017929
     86          8           0       -0.391068   -1.925214   -6.383541
     87          6           0        1.317914   -4.755004   -7.177531
     88          1           0        1.747418   -5.121719   -6.236178
     89          1           0        0.238176   -4.695626   -7.013613
     90          6           0        1.619251   -5.771025   -8.290205
     91          1           0        1.485690   -5.309400   -9.278635
     92          1           0        0.905976   -6.602503   -8.248430
     93          6           0        3.001472   -6.415280   -8.204723
     94          1           0        3.137686   -6.924106   -7.246588
     95          1           0        3.155299   -7.138543   -9.009942
     96          7           0        4.119631   -5.405784   -8.282878
     97          1           0        5.029421   -5.869884   -8.353043
     98          1           0        4.167568   -4.783607   -7.377362
     99          1           0        4.014657   -4.801406   -9.101512
    100          8           0        0.544749   -2.114387   -4.317911
 ---------------------------------------------------------------------

 SCF Done:  E(RB3LYP) =  -2418.64402793     A.U. after    3 cycles

 Alpha  occ. eigenvalues --  -19.25900 -19.21858 -19.21559 -19.21205 -19.20296
 Alpha  occ. eigenvalues --  -19.19118 -19.18942 -19.17524 -19.17253 -19.13071
 Alpha  occ. eigenvalues --  -19.11565 -14.59344 -14.53320 -14.47117 -14.45543
 Alpha  occ. eigenvalues --  -14.43911 -14.42935 -14.42276 -14.42273 -14.41670
 Alpha  occ. eigenvalues --  -10.42113 -10.39826 -10.39647 -10.38413 -10.36702
 Alpha  occ. eigenvalues --  -10.35809 -10.35515 -10.34609 -10.34267 -10.33387
 Alpha  occ. eigenvalues --  -10.33292 -10.31165 -10.30560 -10.30516 -10.30198
 Alpha  occ. eigenvalues --  -10.29416 -10.28882 -10.28495 -10.27796 -10.27461
 Alpha  occ. eigenvalues --  -10.27409 -10.26330 -10.26157 -10.25725 -10.25054
 Alpha  occ. eigenvalues --  -10.24931 -10.24434 -10.23786  -1.18404  -1.13693
 Alpha  occ. eigenvalues --   -1.13437  -1.12833  -1.11450  -1.11198  -1.10352
 Alpha  occ. eigenvalues --   -1.09235  -1.08205  -1.08155  -1.05927  -1.04936
 Alpha  occ. eigenvalues --   -1.04865  -1.01819  -1.00336  -0.99899  -0.99674
 Alpha  occ. eigenvalues --   -0.98279  -0.97883  -0.96722  -0.92706  -0.90102
 Alpha  occ. eigenvalues --   -0.88972  -0.85809  -0.84388  -0.83991  -0.82679
 Alpha  occ. eigenvalues --   -0.82160  -0.80961  -0.79320  -0.79064  -0.77641
 Alpha  occ. eigenvalues --   -0.76483  -0.73445  -0.73259  -0.72813  -0.72080
 Alpha  occ. eigenvalues --   -0.71488  -0.70267  -0.69463  -0.68660  -0.68359
 Alpha  occ. eigenvalues --   -0.67549  -0.67346  -0.66535  -0.66360  -0.66019
 Alpha  occ. eigenvalues --   -0.65855  -0.64692  -0.64193  -0.63624  -0.62691
 Alpha  occ. eigenvalues --   -0.62195  -0.61930  -0.61183  -0.60922  -0.60004
 Alpha  occ. eigenvalues --   -0.59161  -0.58795  -0.58521  -0.57827  -0.57469
 Alpha  occ. eigenvalues --   -0.57170  -0.56203  -0.56048  -0.55734  -0.55128
 Alpha  occ. eigenvalues --   -0.54630  -0.53886  -0.53630  -0.53430  -0.53264
 Alpha  occ. eigenvalues --   -0.52647  -0.52555  -0.52182  -0.51961  -0.51589
 Alpha  occ. eigenvalues --   -0.51417  -0.51021  -0.50576  -0.50481  -0.50093
 Alpha  occ. eigenvalues --   -0.49868  -0.49044  -0.48912  -0.48712  -0.48531
 Alpha  occ. eigenvalues --   -0.47941  -0.47688  -0.47576  -0.47218  -0.46965
 Alpha  occ. eigenvalues --   -0.46741  -0.46547  -0.46302  -0.45934  -0.45528
 Alpha  occ. eigenvalues --   -0.45261  -0.44776  -0.44605  -0.44233  -0.44139
 Alpha  occ. eigenvalues --   -0.44005  -0.43572  -0.43406  -0.42895  -0.42792
 Alpha  occ. eigenvalues --   -0.42594  -0.42249  -0.42074  -0.41343  -0.41082
 Alpha  occ. eigenvalues --   -0.40943  -0.40841  -0.40742  -0.40412  -0.40308
 Alpha  occ. eigenvalues --   -0.39174  -0.38193  -0.37217  -0.36576  -0.36449
 Alpha  occ. eigenvalues --   -0.35858  -0.35772  -0.35242  -0.34905  -0.34085
 Alpha  occ. eigenvalues --   -0.33638  -0.33355  -0.31884  -0.31687  -0.31336
 Alpha  occ. eigenvalues --   -0.30707  -0.29020  -0.28197  -0.27785  -0.25654
 Alpha virt. eigenvalues --   -0.11449  -0.10351  -0.08295  -0.08112  -0.06277
 Alpha virt. eigenvalues --   -0.06140  -0.05326  -0.05111  -0.03873  -0.03583
 Alpha virt. eigenvalues --   -0.02195  -0.01063  -0.00927  -0.00412   0.00374

 Mulliken charges:
               1
     1  N   -0.759874
     2  H    0.416705
     3  H    0.411150
     4  H    0.432283
     5  C   -0.114102
     6  H    0.233673
     7  C    0.647304
     8  C   -0.400022
     9  H    0.190487
    10  H    0.214614
    11  O   -0.543608
    12  C    0.659183
    13  N   -0.755874
    14  H    0.418150
    15  H    0.344710
    16  O   -0.547472
    17  N   -0.591169
    18  H    0.400304
    19  C   -0.089697
    20  H    0.192525
    21  C    0.655285
    22  C   -0.109516
    23  H    0.159614
    24  O   -0.577717
    25  C   -0.254641
    26  H    0.155073
    27  H    0.142983
    28  C   -0.497219
    29  H    0.149773
    30  H    0.174429
    31  H    0.177717
    32  C   -0.463305
    33  H    0.165815
    34  H    0.159543
    35  H    0.146452
    36  N   -0.592792
    37  H    0.346929
    38  C   -0.055130
    39  H    0.198751
    40  C    0.663219
    41  C   -0.480677
    42  H    0.213536
    43  H    0.151730
    44  H    0.165733
    45  O   -0.553047
    46  N   -0.610173
    47  H    0.365970
    48  C   -0.088951
    49  H    0.182646
    50  C    0.635136
    51  C    0.122812
    52  H    0.148297
    53  O   -0.557981
    54  C   -0.472460
    55  H    0.151147
    56  H    0.175300
    57  H    0.159712
    58  O   -0.680729
    59  H    0.436673
    60  N   -0.582609
    61  H    0.376411
    62  C   -0.097941
    63  H    0.190155
    64  C    0.598116
    65  C   -0.037143
    66  H    0.141556
    67  H    0.163464
    68  O   -0.500891
    69  O   -0.665442
    70  H    0.435581
    71  N   -0.605231
    72  H    0.343326
    73  C   -0.217322
    74  H    0.229635
    75  H    0.177955
    76  C    0.606361
    77  O   -0.631699
    78  N   -0.602751
    79  H    0.385777
    80  C   -0.065327
    81  H    0.172578
    82  C    0.598547
    83  C   -0.275086
    84  H    0.193469
    85  H    0.084940
    86  O   -0.544769
    87  C   -0.282192
    88  H    0.136745
    89  H    0.194098
    90  C   -0.287665
    91  H    0.159543
    92  H    0.179308
    93  C   -0.186697
    94  H    0.201744
    95  H    0.192783
    96  N   -0.766710
    97  H    0.396058
    98  H    0.474422
    99  H    0.390111
   100  O   -0.642418
 Sum of Mulliken charges =   1.00000

 Dipole moment (field-independent basis, Debye):
    X=            -15.0545    Y=             -6.8551    Z=             -7.8316  Tot=             18.3020
 Quadrupole moment (field-independent basis, Debye-Ang):
   XX=            -75.2026   YY=           -173.0680   ZZ=           -112.7184
   XY=            -91.3035   XZ=           -121.1536   YZ=            141.0758

 Normal termination of Gaussian 16 at Wed Jun 29 00:45:03 2022.
