 Gaussian 16, Revision C.01,
 Gaussian 16:  ES64L-G16RevC.01  3-Jul-2019

 ----------------------------------------------------------------------
 # B3LYP/6-31G* empiricaldispersion=gd3bj guess=read geom=check nosymm
 integral(ultrafinegrid)
 ----------------------------------------------------------------------

 ------------------------------------------------------
 Candidate Structure: Conf:772 Charge calc in gas phase
 ------------------------------------------------------
 Structure from the checkpoint file:  "conf-772.chk"
 Charge =  1 Multiplicity = 1

                          Input orientation:
 ---------------------------------------------------------------------
 Center     Atomic      Atomic             Coordinates (Angstroms)
 Number     Number       Type             X           Y           Z
 ---------------------------------------------------------------------
      1          7           0       -3.135212    4.075523    4.688057
      2          1           0       -4.133816    4.092561    4.909360
      3          1           0       -2.760168    5.061746    4.483020
      4          1           0       -2.639897    3.589174    5.453325
      5          6           0       -2.820648    3.304077    3.436810
      6          1           0       -3.583865    3.543152    2.692445
      7          6           0       -2.727639    1.821715    3.802332
      8          6           0       -1.418162    3.718109    2.977658
      9          1           0       -0.708332    3.435490    3.766474
     10          1           0       -1.117011    3.119124    2.112859
     11          8           0       -2.282202    1.531341    4.913292
     12          6           0       -1.296170    5.213427    2.741486
     13          7           0       -0.426426    5.565632    1.799121
     14          1           0       -0.238591    6.550103    1.657749
     15          1           0        0.139933    4.841525    1.323763
     16          8           0       -1.965039    6.019822    3.427134
     17          7           0       -2.995636    0.968611    2.805203
     18          1           0       -3.431222    1.309740    1.956888
     19          6           0       -2.359004   -0.351549    2.705175
     20          1           0       -1.338203   -0.225827    3.073274
     21          6           0       -2.335232   -0.664093    1.204404
     22          6           0       -3.057607   -1.446228    3.546682
     23          1           0       -2.917113   -1.129002    4.588422
     24          8           0       -3.371735   -0.692537    0.541878
     25          6           0       -2.362821   -2.808911    3.367269
     26          1           0       -2.514823   -3.159998    2.337401
     27          1           0       -2.885064   -3.527910    4.010066
     28          6           0       -4.560552   -1.550623    3.270612
     29          1           0       -4.757123   -1.870793    2.244444
     30          1           0       -5.013626   -2.274999    3.955694
     31          1           0       -5.060142   -0.588345    3.422788
     32          6           0       -0.867517   -2.828166    3.705147
     33          1           0       -0.491344   -3.856610    3.724904
     34          1           0       -0.273701   -2.280511    2.965406
     35          1           0       -0.678622   -2.385895    4.690867
     36          7           0       -1.100227   -0.895456    0.694193
     37          1           0       -0.326283   -0.415787    1.157729
     38          6           0       -0.932240   -1.064174   -0.737015
     39          1           0       -1.675935   -1.788116   -1.085411
     40          6           0        0.475411   -1.589426   -0.987568
     41          6           0       -1.119785    0.265902   -1.503157
     42          1           0       -0.908565    0.156985   -2.571514
     43          1           0       -2.153456    0.592755   -1.373775
     44          1           0       -0.452444    1.026430   -1.089115
     45          8           0        1.344789   -1.498729   -0.106272
     46          7           0        0.726301   -2.053088   -2.229653
     47          1           0       -0.020774   -2.025413   -2.917807
     48          6           0        2.059272   -2.023585   -2.822151
     49          1           0        2.708056   -1.503723   -2.120705
     50          6           0        1.938164   -1.179162   -4.100121
     51          6           0        2.650422   -3.415803   -3.088523
     52          1           0        1.850136   -4.057851   -3.476638
     53          8           0        1.053578   -1.410269   -4.919772
     54          6           0        3.822983   -3.393953   -4.063458
     55          1           0        3.496213   -3.095308   -5.063530
     56          1           0        4.265229   -4.392930   -4.140717
     57          1           0        4.602150   -2.699208   -3.731000
     58          8           0        3.070783   -3.898494   -1.795711
     59          1           0        3.257784   -4.846877   -1.877964
     60          7           0        2.865240   -0.203321   -4.164419
     61          1           0        3.442857   -0.067991   -3.336800
     62          6           0        2.915502    0.889282   -5.145299
     63          1           0        3.347649    0.539894   -6.087521
     64          6           0        3.939449    1.844875   -4.495242
     65          6           0        1.530879    1.478532   -5.440369
     66          1           0        0.953543    0.755322   -6.020849
     67          1           0        1.666297    2.396136   -6.028818
     68          8           0        5.119967    1.817949   -4.793057
     69          8           0        0.868926    1.752865   -4.197654
     70          1           0        0.023542    2.183140   -4.394272
     71          7           0        3.419732    2.564246   -3.447594
     72          1           0        2.414767    2.470631   -3.311431
     73          6           0        4.228798    2.826214   -2.271578
     74          1           0        5.276260    2.711756   -2.558422
     75          1           0        4.071259    3.843331   -1.899214
     76          6           0        3.856958    1.776416   -1.216239
     77          8           0        4.077058    0.560323   -1.439498
     78          7           0        3.236455    2.246466   -0.134712
     79          1           0        2.963405    3.228777   -0.105123
     80          6           0        2.476025    1.478922    0.850603
     81          1           0        2.262499    0.491746    0.440618
     82          6           0        1.130672    2.220815    1.076397
     83          6           0        3.233633    1.372508    2.187049
     84          1           0        3.599921    2.371898    2.447731
     85          1           0        2.516555    1.081472    2.963349
     86          8           0        0.188231    1.530450    1.536730
     87          6           0        4.391683    0.366731    2.143292
     88          1           0        4.940964    0.500615    1.202023
     89          1           0        5.111181    0.592508    2.937294
     90          6           0        3.905529   -1.094064    2.300031
     91          1           0        2.818845   -1.152884    2.158586
     92          1           0        4.093495   -1.440461    3.321533
     93          6           0        4.555666   -2.089025    1.344211
     94          1           0        5.644071   -1.988020    1.316065
     95          1           0        4.308473   -3.118768    1.613995
     96          7           0        4.033819   -1.875028   -0.043599
     97          1           0        4.289792   -2.625134   -0.698839
     98          1           0        4.280456   -0.945650   -0.447340
     99          1           0        2.983884   -1.879152   -0.046457
    100          8           0        1.140853    3.455247    0.808089
 ---------------------------------------------------------------------

 SCF Done:  E(RB3LYP) =  -2418.69567742     A.U. after    1 cycles

 Alpha  occ. eigenvalues --  -19.26559 -19.25338 -19.23961 -19.22825 -19.22810
 Alpha  occ. eigenvalues --  -19.22409 -19.21023 -19.20012 -19.19836 -19.18105
 Alpha  occ. eigenvalues --  -19.17618 -14.54844 -14.51653 -14.47032 -14.46429
 Alpha  occ. eigenvalues --  -14.45746 -14.45358 -14.44090 -14.43766 -14.43336
 Alpha  occ. eigenvalues --  -10.40193 -10.39838 -10.39270 -10.39239 -10.38260
 Alpha  occ. eigenvalues --  -10.37130 -10.37029 -10.36672 -10.35704 -10.34767
 Alpha  occ. eigenvalues --  -10.34532 -10.33566 -10.32623 -10.32589 -10.32360
 Alpha  occ. eigenvalues --  -10.31669 -10.31190 -10.30375 -10.29830 -10.29032
 Alpha  occ. eigenvalues --  -10.27865 -10.27282 -10.27240 -10.26514 -10.26107
 Alpha  occ. eigenvalues --  -10.24796 -10.24072 -10.23128  -1.15527  -1.15194
 Alpha  occ. eigenvalues --   -1.13739  -1.13609  -1.13469  -1.13105  -1.12109
 Alpha  occ. eigenvalues --   -1.11746  -1.11617  -1.10971  -1.09375  -1.07641
 Alpha  occ. eigenvalues --   -1.03623  -1.03047  -1.02960  -1.02267  -1.01639
 Alpha  occ. eigenvalues --   -1.00629  -1.00317  -0.99814  -0.90428  -0.90161
 Alpha  occ. eigenvalues --   -0.89498  -0.88085  -0.86434  -0.85564  -0.85275
 Alpha  occ. eigenvalues --   -0.81674  -0.81529  -0.80352  -0.78853  -0.78473
 Alpha  occ. eigenvalues --   -0.77223  -0.75118  -0.74221  -0.73303  -0.71315
 Alpha  occ. eigenvalues --   -0.70758  -0.70204  -0.69970  -0.69607  -0.69282
 Alpha  occ. eigenvalues --   -0.68568  -0.67582  -0.67202  -0.66830  -0.66686
 Alpha  occ. eigenvalues --   -0.66560  -0.66183  -0.65697  -0.64624  -0.63827
 Alpha  occ. eigenvalues --   -0.63202  -0.62740  -0.62514  -0.62380  -0.61444
 Alpha  occ. eigenvalues --   -0.60256  -0.59858  -0.59750  -0.58694  -0.58258
 Alpha  occ. eigenvalues --   -0.57712  -0.57340  -0.56761  -0.56171  -0.55825
 Alpha  occ. eigenvalues --   -0.55648  -0.55188  -0.54884  -0.54367  -0.54256
 Alpha  occ. eigenvalues --   -0.53954  -0.53711  -0.53200  -0.52999  -0.52864
 Alpha  occ. eigenvalues --   -0.52692  -0.52564  -0.51999  -0.51529  -0.51239
 Alpha  occ. eigenvalues --   -0.50767  -0.50513  -0.50381  -0.50055  -0.49825
 Alpha  occ. eigenvalues --   -0.49693  -0.49524  -0.49085  -0.49001  -0.48905
 Alpha  occ. eigenvalues --   -0.48688  -0.48314  -0.47863  -0.47676  -0.47414
 Alpha  occ. eigenvalues --   -0.47223  -0.46912  -0.46722  -0.46615  -0.46339
 Alpha  occ. eigenvalues --   -0.46299  -0.46161  -0.45444  -0.45413  -0.44792
 Alpha  occ. eigenvalues --   -0.44284  -0.43600  -0.43440  -0.43315  -0.43136
 Alpha  occ. eigenvalues --   -0.42724  -0.42059  -0.41952  -0.40516  -0.39859
 Alpha  occ. eigenvalues --   -0.39079  -0.38935  -0.38034  -0.37915  -0.37621
 Alpha  occ. eigenvalues --   -0.37379  -0.37185  -0.36670  -0.36434  -0.36335
 Alpha  occ. eigenvalues --   -0.35416  -0.35324  -0.34570  -0.34268  -0.33584
 Alpha  occ. eigenvalues --   -0.33244  -0.32818  -0.32655  -0.32437  -0.31369
 Alpha virt. eigenvalues --   -0.10010  -0.09872  -0.09401  -0.07341  -0.06712
 Alpha virt. eigenvalues --   -0.06066  -0.05784  -0.05407  -0.04364  -0.02998
 Alpha virt. eigenvalues --   -0.02700  -0.01959  -0.01773  -0.00791  -0.00237

 Mulliken charges:
               1
     1  N   -0.748869
     2  H    0.399254
     3  H    0.440686
     4  H    0.404290
     5  C   -0.130982
     6  H    0.195778
     7  C    0.649389
     8  C   -0.413704
     9  H    0.206994
    10  H    0.252549
    11  O   -0.529229
    12  C    0.630515
    13  N   -0.763293
    14  H    0.350848
    15  H    0.423232
    16  O   -0.573239
    17  N   -0.604056
    18  H    0.353177
    19  C   -0.011832
    20  H    0.180541
    21  C    0.580853
    22  C   -0.089431
    23  H    0.154874
    24  O   -0.536276
    25  C   -0.261627
    26  H    0.143817
    27  H    0.149231
    28  C   -0.455428
    29  H    0.177268
    30  H    0.149906
    31  H    0.134465
    32  C   -0.464654
    33  H    0.149632
    34  H    0.144431
    35  H    0.151053
    36  N   -0.597661
    37  H    0.379125
    38  C   -0.068089
    39  H    0.193152
    40  C    0.645520
    41  C   -0.477214
    42  H    0.156217
    43  H    0.190591
    44  H    0.177146
    45  O   -0.558760
    46  N   -0.585714
    47  H    0.363319
    48  C   -0.090700
    49  H    0.160641
    50  C    0.640467
    51  C    0.140072
    52  H    0.162345
    53  O   -0.541208
    54  C   -0.478878
    55  H    0.190171
    56  H    0.161025
    57  H    0.157643
    58  O   -0.651739
    59  H    0.415368
    60  N   -0.655423
    61  H    0.393253
    62  C   -0.010748
    63  H    0.195460
    64  C    0.518204
    65  C   -0.075550
    66  H    0.193586
    67  H    0.161029
    68  O   -0.474036
    69  O   -0.631679
    70  H    0.418724
    71  N   -0.580267
    72  H    0.368213
    73  C   -0.226483
    74  H    0.220939
    75  H    0.170718
    76  C    0.606848
    77  O   -0.600463
    78  N   -0.553858
    79  H    0.360138
    80  C   -0.102166
    81  H    0.176668
    82  C    0.627453
    83  C   -0.268354
    84  H    0.153936
    85  H    0.165230
    86  O   -0.607036
    87  C   -0.285368
    88  H    0.145040
    89  H    0.163483
    90  C   -0.296907
    91  H    0.182730
    92  H    0.177651
    93  C   -0.176048
    94  H    0.193488
    95  H    0.190898
    96  N   -0.825797
    97  H    0.396066
    98  H    0.433491
    99  H    0.445329
   100  O   -0.611397
 Sum of Mulliken charges =   1.00000

 Dipole moment (field-independent basis, Debye):
    X=              3.4796    Y=              2.5542    Z=              4.6233  Tot=              6.3251
 Quadrupole moment (field-independent basis, Debye-Ang):
   XX=           -223.3790   YY=           -209.6883   ZZ=           -226.0739
   XY=            -54.2893   XZ=            -19.7418   YZ=             31.6810

 Normal termination of Gaussian 16 at Wed Jun 29 00:44:16 2022.
