 Gaussian 16, Revision C.01,
 Gaussian 16:  ES64L-G16RevC.01  3-Jul-2019

 ----------------------------------------------------------------------
 # B3LYP/6-31G* empiricaldispersion=gd3bj guess=read geom=check nosymm
 integral(ultrafinegrid)
 ----------------------------------------------------------------------

 ------------------------------------------------------
 Candidate Structure: Conf:121 Charge calc in gas phase
 ------------------------------------------------------
 Structure from the checkpoint file:  "conf-121.chk"
 Charge =  1 Multiplicity = 1

                          Input orientation:
 ---------------------------------------------------------------------
 Center     Atomic      Atomic             Coordinates (Angstroms)
 Number     Number       Type             X           Y           Z
 ---------------------------------------------------------------------
      1          7           0       -7.194026   -0.443710    5.707465
      2          1           0       -6.837376   -0.542847    6.661545
      3          1           0       -7.961707   -1.151076    5.529516
      4          1           0       -7.471515    0.551198    5.577583
      5          6           0       -6.127143   -0.687004    4.677858
      6          1           0       -5.419056   -1.413448    5.082575
      7          6           0       -5.485059    0.697426    4.431752
      8          6           0       -6.766412   -1.207732    3.376320
      9          1           0       -7.382786   -0.410621    2.939814
     10          1           0       -5.966878   -1.417721    2.660203
     11          8           0       -6.130955    1.695984    4.758420
     12          6           0       -7.670377   -2.418655    3.606432
     13          7           0       -7.656065   -3.376235    2.668804
     14          1           0       -8.291703   -4.159440    2.763827
     15          1           0       -7.074825   -3.327506    1.844313
     16          8           0       -8.397729   -2.478684    4.609083
     17          7           0       -4.294423    0.671452    3.838032
     18          1           0       -3.899510   -0.203450    3.498389
     19          6           0       -3.614952    1.836202    3.269340
     20          1           0       -4.333316    2.660427    3.232228
     21          6           0       -3.214489    1.372077    1.861158
     22          6           0       -2.381109    2.253376    4.124252
     23          1           0       -1.689024    1.400743    4.128638
     24          8           0       -3.007313    0.163594    1.660483
     25          6           0       -2.826312    2.541208    5.570758
     26          1           0       -3.413156    1.692113    5.940643
     27          1           0       -3.502475    3.407218    5.574897
     28          6           0       -1.655336    3.449533    3.494896
     29          1           0       -2.341148    4.297672    3.354730
     30          1           0       -0.856330    3.791732    4.156326
     31          1           0       -1.183799    3.204539    2.540769
     32          6           0       -1.662909    2.778892    6.537964
     33          1           0       -2.031662    2.874851    7.564504
     34          1           0       -0.952754    1.944050    6.512123
     35          1           0       -1.110946    3.693626    6.303844
     36          7           0       -3.102578    2.305156    0.901881
     37          1           0       -3.115728    3.277150    1.187140
     38          6           0       -2.412233    2.014518   -0.367576
     39          1           0       -2.832324    1.081454   -0.750737
     40          6           0       -0.919248    1.851716   -0.016193
     41          6           0       -2.627830    3.161560   -1.346212
     42          1           0       -2.166011    2.922392   -2.308259
     43          1           0       -3.694610    3.343000   -1.508193
     44          1           0       -2.152560    4.070303   -0.964055
     45          8           0       -0.293323    2.805875    0.437847
     46          7           0       -0.418753    0.607764   -0.166840
     47          1           0       -0.938923   -0.125352   -0.634942
     48          6           0        0.891896    0.229020    0.317830
     49          1           0        1.481920    1.142313    0.422436
     50          6           0        1.478775   -0.751724   -0.697639
     51          6           0        0.775366   -0.484455    1.711596
     52          1           0        0.503540   -1.533182    1.513436
     53          8           0        0.734502   -1.520103   -1.309185
     54          6           0        2.084602   -0.425607    2.482893
     55          1           0        2.904335   -0.882223    1.920394
     56          1           0        1.981331   -0.955971    3.433689
     57          1           0        2.341943    0.617183    2.698508
     58          8           0       -0.225713    0.120575    2.515505
     59          1           0       -1.084847   -0.042401    2.087975
     60          7           0        2.820923   -0.747280   -0.814096
     61          1           0        3.402790   -0.143221   -0.241506
     62          6           0        3.553914   -1.748365   -1.559313
     63          1           0        3.028135   -2.706424   -1.497367
     64          6           0        4.940425   -1.843719   -0.929894
     65          6           0        3.667553   -1.359372   -3.062653
     66          1           0        4.104467   -0.354274   -3.127584
     67          1           0        2.649982   -1.324010   -3.461758
     68          8           0        5.349572   -0.997365   -0.137337
     69          8           0        4.409675   -2.302100   -3.808281
     70          1           0        5.346192   -2.003966   -3.792339
     71          7           0        5.680884   -2.908398   -1.352667
     72          1           0        5.313931   -3.353789   -2.190016
     73          6           0        7.121120   -2.816879   -1.259515
     74          1           0        7.389593   -2.486345   -0.253540
     75          1           0        7.557467   -3.807553   -1.422168
     76          6           0        7.682717   -1.835033   -2.304580
     77          8           0        7.010460   -1.445388   -3.267634
     78          7           0        8.957049   -1.463441   -2.110239
     79          1           0        9.470771   -1.738814   -1.279291
     80          6           0        9.678889   -0.572460   -3.003898
     81          1           0        9.483304   -0.855087   -4.040681
     82          6           0       11.156041   -0.687736   -2.682368
     83          6           0        9.249595    0.908752   -2.776234
     84          1           0        8.187327    0.952380   -3.031196
     85          1           0        9.321095    1.099960   -1.698240
     86          8           0       11.922987   -0.306964   -3.694976
     87          6           0       10.044170    1.973496   -3.572582
     88          1           0       10.648761    1.491439   -4.344079
     89          1           0        9.332668    2.616833   -4.102419
     90          6           0       10.924049    2.909491   -2.717248
     91          1           0       10.268871    3.464255   -2.032227
     92          1           0       11.369061    3.667374   -3.378381
     93          6           0       12.037882    2.312764   -1.845143
     94          1           0       12.407966    3.111907   -1.187561
     95          1           0       11.648329    1.522347   -1.197705
     96          7           0       13.158780    1.719435   -2.619963
     97          1           0       13.922752    1.489739   -1.985760
     98          1           0       13.525047    2.401835   -3.283940
     99          1           0       12.643169    0.331007   -3.317157
    100          8           0       11.547336   -0.970101   -1.560092
 ---------------------------------------------------------------------

 SCF Done:  E(RB3LYP) =  -2418.66153558     A.U. after    1 cycles

 Alpha  occ. eigenvalues --  -19.27333 -19.26172 -19.23232 -19.20424 -19.20367
 Alpha  occ. eigenvalues --  -19.18426 -19.18337 -19.18194 -19.18130 -19.17862
 Alpha  occ. eigenvalues --  -19.17763 -14.58063 -14.50665 -14.49377 -14.46957
 Alpha  occ. eigenvalues --  -14.43222 -14.42141 -14.41760 -14.41443 -14.40290
 Alpha  occ. eigenvalues --  -10.44904 -10.43298 -10.41262 -10.39980 -10.36424
 Alpha  occ. eigenvalues --  -10.35905 -10.35615 -10.35016 -10.34961 -10.34606
 Alpha  occ. eigenvalues --  -10.34272 -10.32238 -10.30405 -10.29277 -10.28910
 Alpha  occ. eigenvalues --  -10.28534 -10.28259 -10.28173 -10.28159 -10.26991
 Alpha  occ. eigenvalues --  -10.26353 -10.26289 -10.24654 -10.24600 -10.23998
 Alpha  occ. eigenvalues --  -10.23737 -10.23375 -10.22953  -1.19343  -1.18368
 Alpha  occ. eigenvalues --   -1.15105  -1.13003  -1.12762  -1.10896  -1.10463
 Alpha  occ. eigenvalues --   -1.09671  -1.09149  -1.08008  -1.06208  -1.05911
 Alpha  occ. eigenvalues --   -1.05674  -1.04623  -1.03130  -0.99466  -0.98740
 Alpha  occ. eigenvalues --   -0.98359  -0.98228  -0.95723  -0.94669  -0.90530
 Alpha  occ. eigenvalues --   -0.86731  -0.85233  -0.84901  -0.84270  -0.82136
 Alpha  occ. eigenvalues --   -0.81812  -0.80720  -0.78788  -0.77935  -0.76895
 Alpha  occ. eigenvalues --   -0.75280  -0.74270  -0.73677  -0.73400  -0.72612
 Alpha  occ. eigenvalues --   -0.71411  -0.71261  -0.69842  -0.69045  -0.68776
 Alpha  occ. eigenvalues --   -0.68501  -0.66634  -0.66467  -0.66292  -0.65449
 Alpha  occ. eigenvalues --   -0.64751  -0.64534  -0.63854  -0.63764  -0.63274
 Alpha  occ. eigenvalues --   -0.62892  -0.61726  -0.61519  -0.59614  -0.59390
 Alpha  occ. eigenvalues --   -0.58919  -0.58676  -0.57811  -0.57761  -0.57452
 Alpha  occ. eigenvalues --   -0.56867  -0.56579  -0.56339  -0.55786  -0.55123
 Alpha  occ. eigenvalues --   -0.54871  -0.54561  -0.54217  -0.53727  -0.53473
 Alpha  occ. eigenvalues --   -0.52991  -0.52432  -0.51937  -0.51655  -0.51571
 Alpha  occ. eigenvalues --   -0.51183  -0.50875  -0.50782  -0.50688  -0.49987
 Alpha  occ. eigenvalues --   -0.49847  -0.49472  -0.49273  -0.49077  -0.48850
 Alpha  occ. eigenvalues --   -0.48358  -0.47774  -0.47601  -0.47093  -0.46900
 Alpha  occ. eigenvalues --   -0.46736  -0.46284  -0.46004  -0.45729  -0.44998
 Alpha  occ. eigenvalues --   -0.44870  -0.44670  -0.44532  -0.44358  -0.44053
 Alpha  occ. eigenvalues --   -0.43790  -0.43627  -0.43478  -0.42991  -0.42375
 Alpha  occ. eigenvalues --   -0.42243  -0.41921  -0.41738  -0.41557  -0.41296
 Alpha  occ. eigenvalues --   -0.40935  -0.40506  -0.40458  -0.40290  -0.38899
 Alpha  occ. eigenvalues --   -0.38837  -0.38799  -0.38479  -0.37860  -0.37557
 Alpha  occ. eigenvalues --   -0.37243  -0.36637  -0.34315  -0.34132  -0.34080
 Alpha  occ. eigenvalues --   -0.33330  -0.33092  -0.32421  -0.32246  -0.31773
 Alpha  occ. eigenvalues --   -0.31681  -0.31061  -0.30731  -0.30541  -0.29795
 Alpha virt. eigenvalues --   -0.13024  -0.11887  -0.09613  -0.09197  -0.05325
 Alpha virt. eigenvalues --   -0.05276  -0.04661  -0.04320  -0.04131  -0.03695
 Alpha virt. eigenvalues --   -0.03213  -0.02509  -0.01330  -0.00953   0.00224

 Mulliken charges:
               1
     1  N   -0.753932
     2  H    0.410545
     3  H    0.444766
     4  H    0.417678
     5  C   -0.127395
     6  H    0.218507
     7  C    0.645799
     8  C   -0.404162
     9  H    0.228907
    10  H    0.207789
    11  O   -0.525251
    12  C    0.647922
    13  N   -0.725232
    14  H    0.383653
    15  H    0.373054
    16  O   -0.534796
    17  N   -0.588027
    18  H    0.360961
    19  C   -0.091412
    20  H    0.185842
    21  C    0.641324
    22  C   -0.080626
    23  H    0.171386
    24  O   -0.578734
    25  C   -0.249756
    26  H    0.114591
    27  H    0.145365
    28  C   -0.515112
    29  H    0.130203
    30  H    0.176121
    31  H    0.213467
    32  C   -0.453643
    33  H    0.152712
    34  H    0.155128
    35  H    0.163531
    36  N   -0.576798
    37  H    0.355451
    38  C   -0.051087
    39  H    0.167692
    40  C    0.626491
    41  C   -0.478809
    42  H    0.182697
    43  H    0.163962
    44  H    0.185203
    45  O   -0.525394
    46  N   -0.608904
    47  H    0.351331
    48  C   -0.060727
    49  H    0.184251
    50  C    0.619404
    51  C    0.130929
    52  H    0.129936
    53  O   -0.547579
    54  C   -0.467369
    55  H    0.161648
    56  H    0.161784
    57  H    0.164378
    58  O   -0.660830
    59  H    0.429594
    60  N   -0.612887
    61  H    0.359197
    62  C   -0.072769
    63  H    0.188523
    64  C    0.595276
    65  C   -0.037195
    66  H    0.144033
    67  H    0.172410
    68  O   -0.537344
    69  O   -0.651321
    70  H    0.441680
    71  N   -0.573021
    72  H    0.349135
    73  C   -0.259001
    74  H    0.203533
    75  H    0.193591
    76  C    0.639560
    77  O   -0.556999
    78  N   -0.603884
    79  H    0.354151
    80  C   -0.018846
    81  H    0.188505
    82  C    0.585582
    83  C   -0.285161
    84  H    0.179016
    85  H    0.147310
    86  O   -0.603829
    87  C   -0.280284
    88  H    0.175520
    89  H    0.145825
    90  C   -0.276877
    91  H    0.149569
    92  H    0.136773
    93  C   -0.156641
    94  H    0.145891
    95  H    0.181332
    96  N   -0.774674
    97  H    0.339948
    98  H    0.328156
    99  H    0.457504
   100  O   -0.499714
 Sum of Mulliken charges =   1.00000

 Dipole moment (field-independent basis, Debye):
    X=            -16.2294    Y=             -0.6874    Z=             15.1208  Tot=             22.1925
 Quadrupole moment (field-independent basis, Debye-Ang):
   XX=             33.5131   YY=           -249.0858   ZZ=           -202.9162
   XY=             68.4381   XZ=           -123.1243   YZ=            -28.2099

 Normal termination of Gaussian 16 at Wed Jun 29 00:44:10 2022.
