 Gaussian 16, Revision C.01,
 Gaussian 16:  ES64L-G16RevC.01  3-Jul-2019

 ----------------------------------------------------------------------
 # B3LYP/6-31G* empiricaldispersion=gd3bj guess=read geom=check nosymm
 integral(ultrafinegrid)
 ----------------------------------------------------------------------

 ------------------------------------------------------
 Candidate Structure: Conf:112 Charge calc in gas phase
 ------------------------------------------------------
 Structure from the checkpoint file:  "conf-112.chk"
 Charge =  1 Multiplicity = 1

                          Input orientation:
 ---------------------------------------------------------------------
 Center     Atomic      Atomic             Coordinates (Angstroms)
 Number     Number       Type             X           Y           Z
 ---------------------------------------------------------------------
      1          7           0       -9.456586    2.718984    4.265718
      2          1           0       -9.540609    2.830561    5.280610
      3          1           0      -10.391272    2.601125    3.866143
      4          1           0       -8.961609    3.581340    3.871213
      5          6           0       -8.480454    1.634003    3.864281
      6          1           0       -8.384794    0.922642    4.685993
      7          6           0       -7.172479    2.445747    3.638907
      8          6           0       -8.976865    0.950116    2.570476
      9          1           0       -9.778339    0.242657    2.812580
     10          1           0       -9.359775    1.706599    1.879780
     11          8           0       -7.310139    3.657803    3.415656
     12          6           0       -7.790436    0.285843    1.849665
     13          7           0       -7.408137   -0.917671    2.344922
     14          1           0       -6.503111   -1.275740    2.055333
     15          1           0       -7.995569   -1.487670    2.935377
     16          8           0       -7.179923    0.902550    0.992701
     17          7           0       -6.040331    1.762037    3.704699
     18          1           0       -6.066648    0.743368    3.784100
     19          6           0       -4.767545    2.203217    3.118371
     20          1           0       -4.962792    3.098445    2.524328
     21          6           0       -4.356674    1.020397    2.224703
     22          6           0       -3.700140    2.486106    4.204996
     23          1           0       -3.585607    1.549575    4.767971
     24          8           0       -4.626611   -0.133016    2.590290
     25          6           0       -4.173391    3.568045    5.196980
     26          1           0       -3.441138    3.600144    6.013092
     27          1           0       -5.118972    3.246633    5.653197
     28          6           0       -2.341744    2.832341    3.575536
     29          1           0       -2.424832    3.654116    2.854391
     30          1           0       -1.644840    3.155243    4.355132
     31          1           0       -1.878764    1.986084    3.062904
     32          6           0       -4.340401    4.974734    4.613181
     33          1           0       -4.642984    5.675364    5.398559
     34          1           0       -3.404561    5.349001    4.186669
     35          1           0       -5.110682    5.005841    3.835988
     36          7           0       -3.708905    1.331807    1.101095
     37          1           0       -3.434043    2.289193    0.904411
     38          6           0       -3.078675    0.344178    0.233003
     39          1           0       -3.018600   -0.590909    0.794839
     40          6           0       -1.683156    0.909911   -0.049869
     41          6           0       -3.884975    0.145566   -1.055563
     42          1           0       -3.436756   -0.639083   -1.673415
     43          1           0       -4.912419   -0.132838   -0.804462
     44          1           0       -3.905446    1.075103   -1.632465
     45          8           0       -1.547831    2.131395   -0.217430
     46          7           0       -0.680361    0.027261   -0.090699
     47          1           0       -0.816110   -0.963934    0.086857
     48          6           0        0.706632    0.410234   -0.285775
     49          1           0        0.746799    1.191152   -1.052860
     50          6           0        1.420598   -0.868700   -0.745737
     51          6           0        1.336893    0.957196    1.035565
     52          1           0        1.492779    0.103050    1.705336
     53          8           0        1.001480   -1.964290   -0.378298
     54          6           0        2.665099    1.669287    0.783264
     55          1           0        3.436203    1.004318    0.382564
     56          1           0        3.028490    2.085528    1.726735
     57          1           0        2.526879    2.501719    0.081164
     58          8           0        0.425535    1.805500    1.721605
     59          1           0       -0.013819    2.372540    1.061348
     60          7           0        2.503285   -0.683682   -1.530518
     61          1           0        2.897642    0.245208   -1.636014
     62          6           0        3.418951   -1.754299   -1.866825
     63          1           0        3.161535   -2.620544   -1.250628
     64          6           0        4.838844   -1.245679   -1.567613
     65          6           0        3.304631   -2.153694   -3.344537
     66          1           0        4.051450   -2.933801   -3.559035
     67          1           0        3.546808   -1.276647   -3.965798
     68          8           0        5.064429   -0.040319   -1.443826
     69          8           0        1.984694   -2.610402   -3.563232
     70          1           0        1.887517   -2.803310   -4.507763
     71          7           0        5.794485   -2.189294   -1.499028
     72          1           0        5.597482   -3.185681   -1.547666
     73          6           0        7.180944   -1.871940   -1.248842
     74          1           0        7.586356   -1.234368   -2.044696
     75          1           0        7.291251   -1.316040   -0.309269
     76          6           0        7.945157   -3.198721   -1.181319
     77          8           0        7.361078   -4.273644   -1.323051
     78          7           0        9.266717   -3.087677   -0.947859
     79          1           0        9.723152   -2.183386   -0.900009
     80          6           0       10.156832   -4.240260   -0.873294
     81          1           0        9.664013   -5.039626   -0.316512
     82          6           0       11.419440   -3.768100   -0.164996
     83          6           0       10.520948   -4.714318   -2.310082
     84          1           0        9.569943   -4.781102   -2.848378
     85          1           0       11.087949   -3.900728   -2.778161
     86          8           0       11.974103   -4.693206    0.608360
     87          6           0       11.241681   -6.063715   -2.501462
     88          1           0       10.552663   -6.871040   -2.222997
     89          1           0       11.402211   -6.169420   -3.582710
     90          6           0       12.571784   -6.320524   -1.762835
     91          1           0       12.988963   -7.260862   -2.143418
     92          1           0       12.353856   -6.485391   -0.706404
     93          6           0       13.634853   -5.206367   -1.870576
     94          1           0       14.349156   -5.433324   -2.673953
     95          1           0       13.176064   -4.246877   -2.120923
     96          7           0       14.316590   -5.002925   -0.565971
     97          1           0       15.001238   -4.252132   -0.640550
     98          1           0       14.829636   -5.843918   -0.302598
     99          1           0       12.987214   -4.643696    0.477442
    100          8           0       11.894297   -2.668089   -0.394608
 ---------------------------------------------------------------------

 SCF Done:  E(RB3LYP) =  -2418.62305232     A.U. after    1 cycles

 Alpha  occ. eigenvalues --  -19.26958 -19.23195 -19.21015 -19.20945 -19.19844
 Alpha  occ. eigenvalues --  -19.18941 -19.18888 -19.17660 -19.17544 -19.17418
 Alpha  occ. eigenvalues --  -19.17287 -14.60893 -14.49039 -14.47289 -14.44767
 Alpha  occ. eigenvalues --  -14.43082 -14.41700 -14.41659 -14.41279 -14.39402
 Alpha  occ. eigenvalues --  -10.43578 -10.42028 -10.41410 -10.38075 -10.36074
 Alpha  occ. eigenvalues --  -10.35581 -10.35176 -10.34807 -10.34555 -10.34484
 Alpha  occ. eigenvalues --  -10.33196 -10.31059 -10.29489 -10.29403 -10.29338
 Alpha  occ. eigenvalues --  -10.28820 -10.28601 -10.28090 -10.27904 -10.26334
 Alpha  occ. eigenvalues --  -10.25953 -10.25171 -10.24414 -10.24262 -10.23560
 Alpha  occ. eigenvalues --  -10.23180 -10.22648 -10.22249  -1.19617  -1.15274
 Alpha  occ. eigenvalues --   -1.14527  -1.13184  -1.12976  -1.11139  -1.09991
 Alpha  occ. eigenvalues --   -1.09396  -1.08772  -1.07346  -1.06477  -1.05970
 Alpha  occ. eigenvalues --   -1.04683  -1.02311  -1.01452  -0.99472  -0.98471
 Alpha  occ. eigenvalues --   -0.98138  -0.97785  -0.94807  -0.94233  -0.90027
 Alpha  occ. eigenvalues --   -0.85938  -0.84930  -0.84349  -0.83739  -0.81986
 Alpha  occ. eigenvalues --   -0.81291  -0.80356  -0.78600  -0.77350  -0.76557
 Alpha  occ. eigenvalues --   -0.74909  -0.74634  -0.73917  -0.73440  -0.71922
 Alpha  occ. eigenvalues --   -0.70945  -0.70559  -0.69860  -0.68490  -0.68032
 Alpha  occ. eigenvalues --   -0.67122  -0.66584  -0.66265  -0.65386  -0.65279
 Alpha  occ. eigenvalues --   -0.64741  -0.64160  -0.64110  -0.63813  -0.63690
 Alpha  occ. eigenvalues --   -0.62579  -0.61339  -0.60215  -0.59408  -0.58889
 Alpha  occ. eigenvalues --   -0.58020  -0.57413  -0.56922  -0.56519  -0.55626
 Alpha  occ. eigenvalues --   -0.55510  -0.55073  -0.54781  -0.54560  -0.54095
 Alpha  occ. eigenvalues --   -0.53523  -0.53499  -0.53254  -0.52957  -0.52751
 Alpha  occ. eigenvalues --   -0.52616  -0.51937  -0.51885  -0.51800  -0.51689
 Alpha  occ. eigenvalues --   -0.50958  -0.50476  -0.50276  -0.50001  -0.49558
 Alpha  occ. eigenvalues --   -0.49364  -0.48957  -0.48780  -0.48730  -0.48365
 Alpha  occ. eigenvalues --   -0.48089  -0.47926  -0.47034  -0.46816  -0.46167
 Alpha  occ. eigenvalues --   -0.46088  -0.45943  -0.45521  -0.45408  -0.45089
 Alpha  occ. eigenvalues --   -0.44696  -0.44244  -0.44129  -0.43978  -0.43853
 Alpha  occ. eigenvalues --   -0.43444  -0.43180  -0.42590  -0.42151  -0.42013
 Alpha  occ. eigenvalues --   -0.41960  -0.41665  -0.40890  -0.40827  -0.40512
 Alpha  occ. eigenvalues --   -0.40207  -0.40172  -0.39070  -0.38801  -0.38502
 Alpha  occ. eigenvalues --   -0.38260  -0.37966  -0.37779  -0.36944  -0.36940
 Alpha  occ. eigenvalues --   -0.35184  -0.34651  -0.34402  -0.33435  -0.32831
 Alpha  occ. eigenvalues --   -0.32606  -0.32374  -0.32253  -0.32013  -0.31684
 Alpha  occ. eigenvalues --   -0.31457  -0.30877  -0.30616  -0.30506  -0.29821
 Alpha virt. eigenvalues --   -0.12858  -0.11667  -0.10660  -0.07085  -0.06707
 Alpha virt. eigenvalues --   -0.04988  -0.04591  -0.04095  -0.03619  -0.03341
 Alpha virt. eigenvalues --   -0.02826  -0.02324  -0.01715   0.00088   0.00786

 Mulliken charges:
               1
     1  N   -0.752589
     2  H    0.418604
     3  H    0.416057
     4  H    0.436644
     5  C   -0.119593
     6  H    0.215774
     7  C    0.654780
     8  C   -0.377495
     9  H    0.186820
    10  H    0.209400
    11  O   -0.537123
    12  C    0.580123
    13  N   -0.738010
    14  H    0.394032
    15  H    0.347432
    16  O   -0.469168
    17  N   -0.581577
    18  H    0.371273
    19  C   -0.080698
    20  H    0.191235
    21  C    0.660671
    22  C   -0.074123
    23  H    0.144175
    24  O   -0.585867
    25  C   -0.257418
    26  H    0.154775
    27  H    0.114866
    28  C   -0.487285
    29  H    0.149312
    30  H    0.169797
    31  H    0.188309
    32  C   -0.469544
    33  H    0.153229
    34  H    0.161775
    35  H    0.162077
    36  N   -0.582872
    37  H    0.362204
    38  C   -0.067903
    39  H    0.180729
    40  C    0.650425
    41  C   -0.444849
    42  H    0.166416
    43  H    0.175789
    44  H    0.173227
    45  O   -0.579067
    46  N   -0.598267
    47  H    0.360492
    48  C   -0.098909
    49  H    0.172505
    50  C    0.623101
    51  C    0.164897
    52  H    0.147145
    53  O   -0.531964
    54  C   -0.485519
    55  H    0.172373
    56  H    0.170384
    57  H    0.143057
    58  O   -0.644833
    59  H    0.413603
    60  N   -0.588158
    61  H    0.355304
    62  C   -0.091242
    63  H    0.200473
    64  C    0.622526
    65  C   -0.015617
    66  H    0.135203
    67  H    0.133694
    68  O   -0.539797
    69  O   -0.604902
    70  H    0.401429
    71  N   -0.618679
    72  H    0.363391
    73  C   -0.193370
    74  H    0.190719
    75  H    0.196045
    76  C    0.610781
    77  O   -0.536748
    78  N   -0.619864
    79  H    0.351625
    80  C   -0.006738
    81  H    0.184246
    82  C    0.580217
    83  C   -0.284166
    84  H    0.171074
    85  H    0.149074
    86  O   -0.596233
    87  C   -0.270206
    88  H    0.151720
    89  H    0.143556
    90  C   -0.291071
    91  H    0.141608
    92  H    0.175420
    93  C   -0.160402
    94  H    0.147546
    95  H    0.174289
    96  N   -0.770331
    97  H    0.333468
    98  H    0.326177
    99  H    0.449050
   100  O   -0.493948
 Sum of Mulliken charges =   1.00000

 Dipole moment (field-independent basis, Debye):
    X=            -23.4414    Y=              1.0822    Z=             12.1610  Tot=             26.4303
 Quadrupole moment (field-independent basis, Debye-Ang):
   XX=            238.5384   YY=           -245.2270   ZZ=           -188.0573
   XY=           -129.1558   XZ=           -195.2784   YZ=             49.7664

 Normal termination of Gaussian 16 at Wed Jun 29 00:44:07 2022.
