 Gaussian 16, Revision C.01,
 Gaussian 16:  ES64L-G16RevC.01  3-Jul-2019

 ----------------------------------------------------------------------
 # B3LYP/6-31G* empiricaldispersion=gd3bj guess=read geom=check nosymm
 integral(ultrafinegrid)
 ----------------------------------------------------------------------

 ------------------------------------------------------
 Candidate Structure: Conf:950 Charge calc in gas phase
 ------------------------------------------------------
 Structure from the checkpoint file:  "conf-950.chk"
 Charge =  1 Multiplicity = 1

                          Input orientation:
 ---------------------------------------------------------------------
 Center     Atomic      Atomic             Coordinates (Angstroms)
 Number     Number       Type             X           Y           Z
 ---------------------------------------------------------------------
      1          7           0       -6.959146    3.008208    3.831319
      2          1           0       -7.197050    3.553461    4.664551
      3          1           0       -7.817122    2.816476    3.308340
      4          1           0       -6.257628    3.562572    3.241006
      5          6           0       -6.148941    1.772963    4.147925
      6          1           0       -6.250004    1.522887    5.203799
      7          6           0       -4.713392    2.213375    3.764224
      8          6           0       -6.600551    0.594197    3.275198
      9          1           0       -7.686108    0.454333    3.367627
     10          1           0       -6.350950    0.780028    2.226773
     11          8           0       -4.607772    3.230922    3.064822
     12          6           0       -5.923410   -0.693685    3.759727
     13          7           0       -5.990833   -1.739603    2.913939
     14          1           0       -5.493725   -2.579811    3.182620
     15          1           0       -6.144891   -1.594249    1.925786
     16          8           0       -5.422433   -0.755230    4.883456
     17          7           0       -3.715829    1.434042    4.175673
     18          1           0       -3.997539    0.579089    4.652762
     19          6           0       -2.474980    1.392761    3.410245
     20          1           0       -2.103054    2.417729    3.318336
     21          6           0       -2.816989    0.865507    1.991798
     22          6           0       -1.414694    0.522420    4.123346
     23          1           0       -0.516514    0.576696    3.493735
     24          8           0       -3.926266    0.391465    1.723669
     25          6           0       -1.834252   -0.959943    4.196636
     26          1           0       -2.164898   -1.287171    3.202700
     27          1           0       -2.702093   -1.076994    4.860328
     28          6           0       -1.067851    1.116615    5.494015
     29          1           0       -1.912501    1.037422    6.187642
     30          1           0       -0.218713    0.594487    5.941841
     31          1           0       -0.800413    2.175433    5.409147
     32          6           0       -0.711517   -1.884298    4.675914
     33          1           0       -1.029752   -2.930836    4.636594
     34          1           0        0.178779   -1.781667    4.044426
     35          1           0       -0.417903   -1.669958    5.707970
     36          7           0       -1.809808    0.949556    1.111960
     37          1           0       -0.918355    1.373431    1.353164
     38          6           0       -1.909899    0.528043   -0.275345
     39          1           0       -2.355761   -0.471638   -0.311475
     40          6           0       -0.479094    0.512022   -0.820094
     41          6           0       -2.751229    1.510624   -1.113977
     42          1           0       -2.850969    1.153162   -2.143826
     43          1           0       -3.747547    1.595378   -0.674277
     44          1           0       -2.275052    2.496200   -1.133101
     45          8           0        0.407001    1.170018   -0.253451
     46          7           0       -0.295280   -0.172533   -1.961539
     47          1           0       -1.088010   -0.601481   -2.433486
     48          6           0        0.826547    0.074456   -2.876384
     49          1           0        1.765662    0.052091   -2.319752
     50          6           0        0.584621    1.465216   -3.477862
     51          6           0        0.803921   -1.003018   -3.975012
     52          1           0        1.507969   -0.673363   -4.749143
     53          8           0       -0.061775    1.625508   -4.524656
     54          6           0        1.198656   -2.377224   -3.460941
     55          1           0        2.230441   -2.369854   -3.094724
     56          1           0        1.117831   -3.107841   -4.270344
     57          1           0        0.541509   -2.696210   -2.645030
     58          8           0       -0.521408   -1.084734   -4.499609
     59          1           0       -0.676991   -0.202925   -4.897077
     60          7           0        1.008709    2.478567   -2.708138
     61          1           0        1.636000    2.254790   -1.946567
     62          6           0        0.796564    3.886538   -3.025695
     63          1           0       -0.143827    3.944924   -3.580579
     64          6           0        1.981753    4.312479   -3.909605
     65          6           0        0.691018    4.666999   -1.713081
     66          1           0        0.394166    5.696633   -1.924212
     67          1           0        1.678156    4.703391   -1.233274
     68          8           0        2.915366    4.974543   -3.481083
     69          8           0       -0.296702    4.114140   -0.851149
     70          1           0        0.014078    3.233571   -0.574686
     71          7           0        1.916775    3.787709   -5.174958
     72          1           0        1.165860    3.116895   -5.322846
     73          6           0        3.145523    3.509484   -5.882013
     74          1           0        3.013987    3.655452   -6.960012
     75          1           0        3.897132    4.224162   -5.533798
     76          6           0        3.634002    2.076140   -5.594447
     77          8           0        3.170852    1.393112   -4.677890
     78          7           0        4.611628    1.639596   -6.413662
     79          1           0        4.971582    2.212746   -7.169437
     80          6           0        5.242285    0.339640   -6.269908
     81          1           0        5.396484    0.130925   -5.209090
     82          6           0        6.584210    0.383274   -6.978536
     83          6           0        4.364973   -0.794593   -6.892159
     84          1           0        3.585393   -1.022459   -6.158837
     85          1           0        3.858815   -0.370524   -7.767447
     86          8           0        7.433697   -0.504995   -6.484993
     87          6           0        5.113250   -2.079054   -7.306462
     88          1           0        5.896577   -2.296044   -6.574979
     89          1           0        4.410156   -2.918515   -7.263548
     90          6           0        5.712948   -2.010418   -8.737825
     91          1           0        5.790496   -0.968018   -9.067593
     92          1           0        5.007845   -2.482144   -9.431561
     93          6           0        7.088181   -2.675413   -8.930513
     94          1           0        7.201463   -3.523388   -8.246220
     95          1           0        7.164217   -3.073657   -9.951502
     96          7           0        8.203745   -1.732729   -8.658829
     97          1           0        9.099874   -2.209926   -8.744918
     98          1           0        7.974734   -0.899951   -7.272552
     99          1           0        8.198475   -0.986307   -9.354551
    100          8           0        6.778709    1.085133   -7.960135
 ---------------------------------------------------------------------

 SCF Done:  E(RB3LYP) =  -2418.65862379     A.U. after    1 cycles

 Alpha  occ. eigenvalues --  -19.26757 -19.24431 -19.21998 -19.21791 -19.20885
 Alpha  occ. eigenvalues --  -19.20231 -19.20179 -19.19712 -19.17982 -19.17221
 Alpha  occ. eigenvalues --  -19.17082 -14.60148 -14.48279 -14.47750 -14.45659
 Alpha  occ. eigenvalues --  -14.45269 -14.43411 -14.41293 -14.40414 -14.40366
 Alpha  occ. eigenvalues --  -10.43087 -10.42414 -10.40690 -10.38871 -10.38478
 Alpha  occ. eigenvalues --  -10.36367 -10.35809 -10.34813 -10.34320 -10.33958
 Alpha  occ. eigenvalues --  -10.33826 -10.32886 -10.30651 -10.30297 -10.29397
 Alpha  occ. eigenvalues --  -10.29124 -10.29011 -10.28320 -10.27995 -10.27527
 Alpha  occ. eigenvalues --  -10.27172 -10.26323 -10.26258 -10.25365 -10.24180
 Alpha  occ. eigenvalues --  -10.23816 -10.23773 -10.23479  -1.19390  -1.16264
 Alpha  occ. eigenvalues --   -1.14241  -1.13758  -1.13291  -1.13139  -1.11540
 Alpha  occ. eigenvalues --   -1.09263  -1.08532  -1.07841  -1.07384  -1.05832
 Alpha  occ. eigenvalues --   -1.04787  -1.02988  -1.02424  -1.01664  -0.99941
 Alpha  occ. eigenvalues --   -0.97884  -0.97183  -0.95888  -0.94009  -0.90961
 Alpha  occ. eigenvalues --   -0.87362  -0.85407  -0.84816  -0.83903  -0.82601
 Alpha  occ. eigenvalues --   -0.81988  -0.80960  -0.79440  -0.77935  -0.77250
 Alpha  occ. eigenvalues --   -0.74825  -0.74506  -0.74451  -0.73998  -0.72559
 Alpha  occ. eigenvalues --   -0.71863  -0.70731  -0.69938  -0.68902  -0.68107
 Alpha  occ. eigenvalues --   -0.67553  -0.67144  -0.66758  -0.65997  -0.65484
 Alpha  occ. eigenvalues --   -0.65341  -0.65038  -0.64393  -0.63664  -0.63221
 Alpha  occ. eigenvalues --   -0.62564  -0.62268  -0.60418  -0.59705  -0.59149
 Alpha  occ. eigenvalues --   -0.59043  -0.58559  -0.57817  -0.57657  -0.56778
 Alpha  occ. eigenvalues --   -0.56334  -0.56271  -0.55740  -0.55322  -0.54811
 Alpha  occ. eigenvalues --   -0.54732  -0.54383  -0.54221  -0.53675  -0.53505
 Alpha  occ. eigenvalues --   -0.53424  -0.52865  -0.52552  -0.52424  -0.52063
 Alpha  occ. eigenvalues --   -0.51390  -0.50925  -0.50843  -0.50583  -0.50331
 Alpha  occ. eigenvalues --   -0.50024  -0.49704  -0.49535  -0.49351  -0.49079
 Alpha  occ. eigenvalues --   -0.48395  -0.48189  -0.47817  -0.47476  -0.46888
 Alpha  occ. eigenvalues --   -0.46703  -0.46579  -0.46442  -0.46158  -0.46086
 Alpha  occ. eigenvalues --   -0.45649  -0.45513  -0.44947  -0.44827  -0.44607
 Alpha  occ. eigenvalues --   -0.44333  -0.44003  -0.43875  -0.42861  -0.42593
 Alpha  occ. eigenvalues --   -0.42374  -0.41772  -0.41755  -0.41568  -0.41499
 Alpha  occ. eigenvalues --   -0.41046  -0.40963  -0.39840  -0.39772  -0.39032
 Alpha  occ. eigenvalues --   -0.38984  -0.38882  -0.38568  -0.38272  -0.38201
 Alpha  occ. eigenvalues --   -0.36992  -0.36237  -0.35565  -0.35101  -0.34426
 Alpha  occ. eigenvalues --   -0.34105  -0.33729  -0.33230  -0.32662  -0.32422
 Alpha  occ. eigenvalues --   -0.32117  -0.31513  -0.30344  -0.30218  -0.29551
 Alpha virt. eigenvalues --   -0.12284  -0.11296  -0.10691  -0.08350  -0.07604
 Alpha virt. eigenvalues --   -0.06262  -0.05567  -0.04170  -0.03510  -0.03275
 Alpha virt. eigenvalues --   -0.02352  -0.02094  -0.01255  -0.00429   0.00311

 Mulliken charges:
               1
     1  N   -0.762357
     2  H    0.418910
     3  H    0.411898
     4  H    0.435526
     5  C   -0.114968
     6  H    0.238550
     7  C    0.653685
     8  C   -0.393496
     9  H    0.198136
    10  H    0.222206
    11  O   -0.538867
    12  C    0.641552
    13  N   -0.722757
    14  H    0.367866
    15  H    0.365180
    16  O   -0.523495
    17  N   -0.600728
    18  H    0.400440
    19  C   -0.081554
    20  H    0.197669
    21  C    0.658591
    22  C   -0.108752
    23  H    0.150242
    24  O   -0.587234
    25  C   -0.291896
    26  H    0.146582
    27  H    0.150656
    28  C   -0.453695
    29  H    0.151173
    30  H    0.174857
    31  H    0.157306
    32  C   -0.452403
    33  H    0.158090
    34  H    0.155155
    35  H    0.162205
    36  N   -0.612164
    37  H    0.364844
    38  C   -0.038414
    39  H    0.173224
    40  C    0.634907
    41  C   -0.471770
    42  H    0.162341
    43  H    0.173479
    44  H    0.197590
    45  O   -0.566114
    46  N   -0.597778
    47  H    0.355012
    48  C   -0.076202
    49  H    0.187313
    50  C    0.675390
    51  C    0.093940
    52  H    0.177856
    53  O   -0.582844
    54  C   -0.453511
    55  H    0.154646
    56  H    0.171665
    57  H    0.147412
    58  O   -0.656614
    59  H    0.422818
    60  N   -0.588708
    61  H    0.357122
    62  C   -0.093777
    63  H    0.186441
    64  C    0.617447
    65  C   -0.062577
    66  H    0.171345
    67  H    0.158371
    68  O   -0.508475
    69  O   -0.644348
    70  H    0.412802
    71  N   -0.582128
    72  H    0.363549
    73  C   -0.258659
    74  H    0.173242
    75  H    0.221514
    76  C    0.613466
    77  O   -0.551413
    78  N   -0.609702
    79  H    0.351098
    80  C    0.003503
    81  H    0.182228
    82  C    0.573221
    83  C   -0.287928
    84  H    0.165394
    85  H    0.149484
    86  O   -0.601754
    87  C   -0.284217
    88  H    0.169549
    89  H    0.141300
    90  C   -0.292333
    91  H    0.165315
    92  H    0.150185
    93  C   -0.141442
    94  H    0.161810
    95  H    0.148084
    96  N   -0.778717
    97  H    0.333203
    98  H    0.457537
    99  H    0.343128
   100  O   -0.505460
 Sum of Mulliken charges =   1.00000

 Dipole moment (field-independent basis, Debye):
    X=            -19.8255    Y=              1.0202    Z=              6.2844  Tot=             20.8227
 Quadrupole moment (field-independent basis, Debye-Ang):
   XX=            -59.4554   YY=           -262.2600   ZZ=           -143.7984
   XY=            -81.9782   XZ=           -150.1180   YZ=             58.5850

 Normal termination of Gaussian 16 at Wed Jun 29 00:44:01 2022.
