 Gaussian 16, Revision C.01,
 Gaussian 16:  ES64L-G16RevC.01  3-Jul-2019

 ----------------------------------------------------------------------
 # B3LYP/6-31G* empiricaldispersion=gd3bj guess=read geom=check nosymm
 integral(ultrafinegrid)
 ----------------------------------------------------------------------

 ------------------------------------------------------
 Candidate Structure: Conf:669 Charge calc in gas phase
 ------------------------------------------------------
 Structure from the checkpoint file:  "conf-669.chk"
 Charge =  1 Multiplicity = 1

                          Input orientation:
 ---------------------------------------------------------------------
 Center     Atomic      Atomic             Coordinates (Angstroms)
 Number     Number       Type             X           Y           Z
 ---------------------------------------------------------------------
      1          7           0       -4.786825   -1.403095   -1.840839
      2          1           0       -5.231976   -0.713759   -1.178319
      3          1           0       -5.211785   -2.320716   -1.695063
      4          1           0       -4.903617   -1.103516   -2.830058
      5          6           0       -3.335384   -1.366897   -1.414801
      6          1           0       -2.921891   -2.374766   -1.373307
      7          6           0       -3.398426   -0.744415   -0.007197
      8          6           0       -2.450625   -0.510058   -2.370377
      9          1           0       -1.730911    0.044349   -1.770167
     10          1           0       -1.887526   -1.190790   -3.016535
     11          8           0       -4.412865   -0.120194    0.325524
     12          6           0       -3.263896    0.500658   -3.159186
     13          7           0       -3.962058   -0.083787   -4.240515
     14          1           0       -4.410975    0.604117   -4.840140
     15          1           0       -3.456543   -0.794623   -4.762108
     16          8           0       -3.442141    1.656253   -2.846146
     17          7           0       -2.305895   -0.952667    0.732293
     18          1           0       -1.566135   -1.496436    0.268116
     19          6           0       -1.933245   -0.067466    1.821048
     20          1           0       -2.759501   -0.009869    2.537935
     21          6           0       -1.703862    1.331163    1.197048
     22          6           0       -0.658960   -0.632724    2.512398
     23          1           0        0.168117   -0.500413    1.804329
     24          8           0       -1.704394    1.474824   -0.024720
     25          6           0       -0.797421   -2.145743    2.800247
     26          1           0        0.134826   -2.463227    3.286834
     27          1           0       -0.849113   -2.698970    1.857073
     28          6           0       -0.277099    0.133362    3.789015
     29          1           0       -1.134386    0.281056    4.457393
     30          1           0        0.472799   -0.433959    4.349249
     31          1           0        0.169332    1.105506    3.566658
     32          6           0       -1.985681   -2.528537    3.686210
     33          1           0       -1.981766   -3.604730    3.887206
     34          1           0       -1.960229   -2.014007    4.653219
     35          1           0       -2.938379   -2.291047    3.200666
     36          7           0       -1.483088    2.376567    2.029793
     37          1           0       -1.436836    2.225297    3.027018
     38          6           0       -1.014665    3.671598    1.512984
     39          1           0       -1.630076    3.906102    0.640468
     40          6           0        0.455760    3.490616    1.071759
     41          6           0       -1.150285    4.746231    2.580450
     42          1           0       -0.852880    5.717349    2.176320
     43          1           0       -2.187649    4.812937    2.920781
     44          1           0       -0.495405    4.530649    3.429734
     45          8           0        1.402701    3.757294    1.826058
     46          7           0        0.604288    2.950385   -0.153097
     47          1           0       -0.223113    2.558912   -0.609730
     48          6           0        1.872264    2.539849   -0.706155
     49          1           0        2.498382    3.424134   -0.878478
     50          6           0        1.564750    1.855133   -2.042449
     51          6           0        2.705766    1.516685    0.188690
     52          1           0        2.794424    0.583211   -0.372396
     53          8           0        0.433515    1.526171   -2.366298
     54          6           0        4.101095    2.074643    0.468046
     55          1           0        4.656597    2.274701   -0.456824
     56          1           0        4.680721    1.365706    1.070320
     57          1           0        4.020171    3.013326    1.025927
     58          8           0        2.052477    1.149479    1.384085
     59          1           0        1.975339    1.971782    1.911768
     60          7           0        2.663962    1.578027   -2.818684
     61          1           0        3.570106    1.688637   -2.379740
     62          6           0        2.587875    0.484663   -3.768566
     63          1           0        1.577550    0.061050   -3.694608
     64          6           0        3.561637   -0.618140   -3.332922
     65          6           0        2.778808    0.971196   -5.210268
     66          1           0        3.810557    1.318662   -5.364900
     67          1           0        2.099156    1.816457   -5.369152
     68          8           0        4.174731   -0.549493   -2.255023
     69          8           0        2.459157   -0.119994   -6.074602
     70          1           0        2.638894    0.141233   -6.990177
     71          7           0        3.643454   -1.691090   -4.140408
     72          1           0        3.166534   -1.636383   -5.037255
     73          6           0        4.267981   -2.917616   -3.665925
     74          1           0        4.146027   -3.685430   -4.434251
     75          1           0        5.335628   -2.777985   -3.481269
     76          6           0        3.632003   -3.366397   -2.336542
     77          8           0        4.360616   -3.731722   -1.388530
     78          7           0        2.309436   -3.286060   -2.291482
     79          1           0        1.771037   -2.952716   -3.098880
     80          6           0        1.445766   -3.270443   -1.111422
     81          1           0        1.333091   -4.280623   -0.703228
     82          6           0        0.046109   -2.797609   -1.623184
     83          6           0        1.957701   -2.305935   -0.019920
     84          1           0        2.588616   -1.562417   -0.516089
     85          1           0        1.102589   -1.755003    0.376071
     86          8           0       -0.041479   -2.480232   -2.832507
     87          6           0        2.689687   -2.959485    1.162419
     88          1           0        1.942059   -3.418633    1.817446
     89          1           0        3.331502   -3.772207    0.806906
     90          6           0        3.511353   -1.932293    1.968644
     91          1           0        3.517249   -2.195461    3.032952
     92          1           0        3.050388   -0.938885    1.904246
     93          6           0        4.985586   -1.849862    1.573486
     94          1           0        5.483528   -1.015977    2.075234
     95          1           0        5.512560   -2.773098    1.828760
     96          7           0        5.200300   -1.670176    0.091621
     97          1           0        6.188883   -1.515607   -0.121784
     98          1           0        4.683062   -0.887554   -0.328434
     99          1           0        4.897152   -2.523639   -0.467571
    100          8           0       -0.853556   -2.774112   -0.738022
 ---------------------------------------------------------------------

 SCF Done:  E(RB3LYP) =  -2418.67446355     A.U. after    1 cycles

 Alpha  occ. eigenvalues --  -19.26030 -19.23846 -19.22967 -19.21596 -19.21508
 Alpha  occ. eigenvalues --  -19.21414 -19.21066 -19.19841 -19.19725 -19.16745
 Alpha  occ. eigenvalues --  -19.16256 -14.53970 -14.53809 -14.46809 -14.45604
 Alpha  occ. eigenvalues --  -14.45302 -14.44490 -14.44162 -14.43208 -14.43051
 Alpha  occ. eigenvalues --  -10.40164 -10.38601 -10.38412 -10.38027 -10.37735
 Alpha  occ. eigenvalues --  -10.36770 -10.36555 -10.34993 -10.34498 -10.34445
 Alpha  occ. eigenvalues --  -10.33964 -10.33328 -10.33275 -10.33041 -10.32166
 Alpha  occ. eigenvalues --  -10.31286 -10.31098 -10.29766 -10.28389 -10.27261
 Alpha  occ. eigenvalues --  -10.27231 -10.27143 -10.26615 -10.26428 -10.25482
 Alpha  occ. eigenvalues --  -10.25206 -10.24886 -10.23784  -1.15516  -1.13884
 Alpha  occ. eigenvalues --   -1.13742  -1.12999  -1.12831  -1.12781  -1.12376
 Alpha  occ. eigenvalues --   -1.11693  -1.09903  -1.09820  -1.08934  -1.08202
 Alpha  occ. eigenvalues --   -1.03626  -1.02425  -1.01889  -1.01086  -1.00679
 Alpha  occ. eigenvalues --   -1.00119  -1.00057  -0.99471  -0.89655  -0.89370
 Alpha  occ. eigenvalues --   -0.88369  -0.86833  -0.86186  -0.85149  -0.84454
 Alpha  occ. eigenvalues --   -0.82477  -0.80758  -0.79938  -0.78974  -0.78619
 Alpha  occ. eigenvalues --   -0.76230  -0.74722  -0.73369  -0.72597  -0.71429
 Alpha  occ. eigenvalues --   -0.70440  -0.69514  -0.69236  -0.68590  -0.68434
 Alpha  occ. eigenvalues --   -0.67889  -0.67805  -0.67623  -0.66336  -0.66032
 Alpha  occ. eigenvalues --   -0.65958  -0.65812  -0.65441  -0.65118  -0.63861
 Alpha  occ. eigenvalues --   -0.62599  -0.62133  -0.61774  -0.61208  -0.60156
 Alpha  occ. eigenvalues --   -0.59931  -0.59120  -0.58579  -0.58445  -0.57572
 Alpha  occ. eigenvalues --   -0.57275  -0.57043  -0.56533  -0.56323  -0.55961
 Alpha  occ. eigenvalues --   -0.55349  -0.54714  -0.54370  -0.54233  -0.54062
 Alpha  occ. eigenvalues --   -0.53805  -0.53417  -0.53005  -0.52917  -0.52464
 Alpha  occ. eigenvalues --   -0.52154  -0.52019  -0.51996  -0.51312  -0.50672
 Alpha  occ. eigenvalues --   -0.50558  -0.50157  -0.50007  -0.49791  -0.49597
 Alpha  occ. eigenvalues --   -0.49410  -0.48947  -0.48425  -0.48300  -0.47740
 Alpha  occ. eigenvalues --   -0.47645  -0.47524  -0.47175  -0.47056  -0.46702
 Alpha  occ. eigenvalues --   -0.46331  -0.46083  -0.45960  -0.45795  -0.45760
 Alpha  occ. eigenvalues --   -0.45213  -0.44962  -0.44536  -0.44432  -0.44097
 Alpha  occ. eigenvalues --   -0.43917  -0.43563  -0.43393  -0.43173  -0.42698
 Alpha  occ. eigenvalues --   -0.42113  -0.41785  -0.41027  -0.39832  -0.39516
 Alpha  occ. eigenvalues --   -0.39277  -0.38622  -0.38234  -0.38001  -0.37448
 Alpha  occ. eigenvalues --   -0.36691  -0.36033  -0.35840  -0.35614  -0.34967
 Alpha  occ. eigenvalues --   -0.34854  -0.34712  -0.34437  -0.33830  -0.33442
 Alpha  occ. eigenvalues --   -0.33032  -0.32113  -0.31888  -0.31145  -0.30668
 Alpha virt. eigenvalues --   -0.09914  -0.08646  -0.08128  -0.07750  -0.06761
 Alpha virt. eigenvalues --   -0.06359  -0.06194  -0.05280  -0.04886  -0.03233
 Alpha virt. eigenvalues --   -0.02103  -0.01731  -0.01020  -0.00917  -0.00610

 Mulliken charges:
               1
     1  N   -0.779217
     2  H    0.419453
     3  H    0.400908
     4  H    0.415126
     5  C   -0.128599
     6  H    0.241740
     7  C    0.644768
     8  C   -0.385313
     9  H    0.264555
    10  H    0.211472
    11  O   -0.546959
    12  C    0.507310
    13  N   -0.769479
    14  H    0.354247
    15  H    0.349856
    16  O   -0.420430
    17  N   -0.629417
    18  H    0.419472
    19  C   -0.057815
    20  H    0.182486
    21  C    0.648749
    22  C   -0.133275
    23  H    0.178923
    24  O   -0.530516
    25  C   -0.276962
    26  H    0.131417
    27  H    0.170547
    28  C   -0.486500
    29  H    0.152368
    30  H    0.160446
    31  H    0.151938
    32  C   -0.457628
    33  H    0.156537
    34  H    0.149117
    35  H    0.154917
    36  N   -0.605207
    37  H    0.343163
    38  C   -0.050219
    39  H    0.193608
    40  C    0.615989
    41  C   -0.472373
    42  H    0.178493
    43  H    0.167130
    44  H    0.173028
    45  O   -0.573795
    46  N   -0.626188
    47  H    0.420347
    48  C   -0.031208
    49  H    0.183235
    50  C    0.567376
    51  C    0.110469
    52  H    0.152801
    53  O   -0.489284
    54  C   -0.492296
    55  H    0.140933
    56  H    0.135941
    57  H    0.198247
    58  O   -0.637852
    59  H    0.434477
    60  N   -0.597505
    61  H    0.342873
    62  C   -0.100608
    63  H    0.240550
    64  C    0.620313
    65  C   -0.035709
    66  H    0.145069
    67  H    0.175379
    68  O   -0.592816
    69  O   -0.630792
    70  H    0.421010
    71  N   -0.594672
    72  H    0.385937
    73  C   -0.212908
    74  H    0.198994
    75  H    0.189505
    76  C    0.603650
    77  O   -0.591253
    78  N   -0.574315
    79  H    0.362040
    80  C   -0.019567
    81  H    0.178549
    82  C    0.593208
    83  C   -0.318057
    84  H    0.125967
    85  H    0.190502
    86  O   -0.584223
    87  C   -0.300142
    88  H    0.165771
    89  H    0.170559
    90  C   -0.320918
    91  H    0.169994
    92  H    0.208313
    93  C   -0.186495
    94  H    0.191438
    95  H    0.200320
    96  N   -0.795928
    97  H    0.390400
    98  H    0.433776
    99  H    0.461544
   100  O   -0.610808
 Sum of Mulliken charges =   1.00000

 Dipole moment (field-independent basis, Debye):
    X=              6.9495    Y=             -4.2685    Z=             -8.8656  Tot=             12.0464
 Quadrupole moment (field-independent basis, Debye-Ang):
   XX=           -155.6429   YY=           -270.2532   ZZ=           -190.9230
   XY=              6.1667   XZ=              0.0404   YZ=              7.4184

 Normal termination of Gaussian 16 at Wed Jun 29 00:44:50 2022.
