 Gaussian 16, Revision C.01,
 Gaussian 16:  ES64L-G16RevC.01  3-Jul-2019

 ----------------------------------------------------------------------
 # B3LYP/6-31G* empiricaldispersion=gd3bj guess=read geom=check nosymm
 integral(ultrafinegrid)
 ----------------------------------------------------------------------

 ------------------------------------------------------
 Candidate Structure: Conf:797 Charge calc in gas phase
 ------------------------------------------------------
 Structure from the checkpoint file:  "conf-797.chk"
 Charge =  1 Multiplicity = 1

                          Input orientation:
 ---------------------------------------------------------------------
 Center     Atomic      Atomic             Coordinates (Angstroms)
 Number     Number       Type             X           Y           Z
 ---------------------------------------------------------------------
      1          7           0       -2.371726    1.991496   -3.446506
      2          1           0       -2.940817    2.473151   -4.141856
      3          1           0       -1.591786    1.356997   -3.971450
      4          1           0       -1.803302    2.676730   -2.909398
      5          6           0       -3.192097    1.290875   -2.409762
      6          1           0       -4.248811    1.536086   -2.537115
      7          6           0       -2.662497    1.833473   -1.063548
      8          6           0       -2.987828   -0.226874   -2.527139
      9          1           0       -3.213000   -0.530282   -3.558430
     10          1           0       -1.936967   -0.477348   -2.354443
     11          8           0       -1.635337    2.517983   -1.060597
     12          6           0       -3.920222   -1.006438   -1.612966
     13          7           0       -3.527725   -2.276324   -1.342647
     14          1           0       -4.066775   -2.747853   -0.626106
     15          1           0       -2.532128   -2.458305   -1.320977
     16          8           0       -4.988665   -0.532816   -1.216101
     17          7           0       -3.338838    1.476530    0.041141
     18          1           0       -4.109010    0.826891   -0.096439
     19          6           0       -2.613788    1.410070    1.307734
     20          1           0       -2.162137    2.390538    1.482238
     21          6           0       -1.498813    0.355211    1.134997
     22          6           0       -3.573455    1.086382    2.476066
     23          1           0       -4.366009    1.846640    2.419705
     24          8           0       -1.701124   -0.674326    0.482676
     25          6           0       -2.844221    1.267861    3.821102
     26          1           0       -2.320830    2.233926    3.810783
     27          1           0       -2.066347    0.500097    3.920042
     28          6           0       -4.223735   -0.300232    2.353664
     29          1           0       -3.472656   -1.092206    2.435178
     30          1           0       -4.960896   -0.442027    3.148605
     31          1           0       -4.747294   -0.439905    1.402325
     32          6           0       -3.768818    1.222575    5.040262
     33          1           0       -3.209852    1.443227    5.955445
     34          1           0       -4.573564    1.962561    4.953558
     35          1           0       -4.231050    0.238546    5.167271
     36          7           0       -0.328963    0.632351    1.732359
     37          1           0       -0.154633    1.512195    2.209107
     38          6           0        0.835294   -0.223514    1.608478
     39          1           0        0.549892   -1.247755    1.876637
     40          6           0        1.878144    0.315535    2.594792
     41          6           0        1.412495   -0.212849    0.178722
     42          1           0        2.268280   -0.892669    0.111654
     43          1           0        0.646666   -0.520780   -0.534993
     44          1           0        1.763601    0.790963   -0.072483
     45          8           0        1.784181    1.436573    3.081660
     46          7           0        2.895630   -0.549393    2.848720
     47          1           0        2.907192   -1.435481    2.356499
     48          6           0        4.220952   -0.107753    3.240728
     49          1           0        4.114221    0.725494    3.941622
     50          6           0        4.912429    0.417877    1.955387
     51          6           0        4.938519   -1.301527    3.907817
     52          1           0        5.989604   -1.019165    4.091768
     53          8           0        4.281094    1.025099    1.101908
     54          6           0        4.313914   -1.659962    5.248830
     55          1           0        4.416795   -0.832759    5.958844
     56          1           0        4.812287   -2.542419    5.659161
     57          1           0        3.251451   -1.885016    5.122814
     58          8           0        4.853943   -2.456029    3.083370
     59          1           0        5.173069   -2.263448    2.176037
     60          7           0        6.238860    0.111683    1.753463
     61          1           0        6.665764   -0.590501    2.344746
     62          6           0        6.637035   -0.009308    0.363650
     63          1           0        6.535940    0.961931   -0.128801
     64          6           0        5.685012   -1.018170   -0.326937
     65          6           0        8.095440   -0.454572    0.293512
     66          1           0        8.726045    0.347002    0.703370
     67          1           0        8.376676   -0.616646   -0.757423
     68          8           0        5.109782   -1.907815    0.302374
     69          8           0        8.204224   -1.647136    1.057863
     70          1           0        9.141414   -1.867833    1.162741
     71          7           0        5.523444   -0.856729   -1.657832
     72          1           0        5.852785   -0.016126   -2.121138
     73          6           0        4.471467   -1.555771   -2.370609
     74          1           0        4.862685   -2.441742   -2.890274
     75          1           0        3.726993   -1.903999   -1.650404
     76          6           0        3.882249   -0.600295   -3.407890
     77          8           0        4.589266    0.270253   -3.924269
     78          7           0        2.590623   -0.822187   -3.734011
     79          1           0        1.990425   -1.338523   -3.090781
     80          6           0        1.818786    0.114240   -4.539701
     81          1           0        2.225692    1.121499   -4.389821
     82          6           0        0.360396    0.109665   -4.011126
     83          6           0        1.845078   -0.206393   -6.040641
     84          1           0        1.451794   -1.220175   -6.195828
     85          1           0        1.152846    0.488784   -6.527438
     86          8           0       -0.421787    0.888255   -4.653722
     87          6           0        3.240728   -0.091366   -6.657931
     88          1           0        3.666113    0.891623   -6.426131
     89          1           0        3.913542   -0.825182   -6.202090
     90          6           0        3.210662   -0.299908   -8.179709
     91          1           0        2.547664    0.444892   -8.641981
     92          1           0        2.800170   -1.292860   -8.411651
     93          6           0        4.610974   -0.171890   -8.753656
     94          1           0        5.042553    0.817008   -8.583548
     95          1           0        5.294072   -0.929705   -8.363582
     96          7           0        4.593066   -0.365960  -10.275062
     97          1           0        5.527773   -0.283720  -10.692884
     98          1           0        3.985852    0.331789  -10.721752
     99          1           0        4.219331   -1.291286  -10.518280
    100          8           0        0.090539   -0.626632   -3.046656
 ---------------------------------------------------------------------

 SCF Done:  E(RB3LYP) =  -2418.63757473     A.U. after    1 cycles

 Alpha  occ. eigenvalues --  -19.22212 -19.19426 -19.19029 -19.18725 -19.18017
 Alpha  occ. eigenvalues --  -19.17683 -19.17240 -19.17062 -19.16580 -19.16073
 Alpha  occ. eigenvalues --  -19.16000 -14.65116 -14.47771 -14.42948 -14.42305
 Alpha  occ. eigenvalues --  -14.41533 -14.41151 -14.40997 -14.40290 -14.39899
 Alpha  occ. eigenvalues --  -10.41749 -10.36070 -10.35867 -10.35525 -10.35507
 Alpha  occ. eigenvalues --  -10.34646 -10.33925 -10.33893 -10.33113 -10.32958
 Alpha  occ. eigenvalues --  -10.32231 -10.31224 -10.29976 -10.29726 -10.29361
 Alpha  occ. eigenvalues --  -10.29136 -10.28762 -10.28201 -10.27853 -10.27602
 Alpha  occ. eigenvalues --  -10.27092 -10.26034 -10.24465 -10.22619 -10.21588
 Alpha  occ. eigenvalues --  -10.21410 -10.21387 -10.21302  -1.18989  -1.11582
 Alpha  occ. eigenvalues --   -1.11342  -1.10773  -1.10084  -1.09613  -1.09413
 Alpha  occ. eigenvalues --   -1.09142  -1.08200  -1.07423  -1.05549  -1.03468
 Alpha  occ. eigenvalues --   -1.01489  -0.99224  -0.98925  -0.98898  -0.98012
 Alpha  occ. eigenvalues --   -0.96942  -0.96769  -0.96281  -0.95182  -0.87648
 Alpha  occ. eigenvalues --   -0.86681  -0.84625  -0.84280  -0.82819  -0.81970
 Alpha  occ. eigenvalues --   -0.80297  -0.79318  -0.78208  -0.77601  -0.77566
 Alpha  occ. eigenvalues --   -0.75629  -0.75149  -0.73955  -0.73473  -0.70695
 Alpha  occ. eigenvalues --   -0.69765  -0.69148  -0.67891  -0.66390  -0.65921
 Alpha  occ. eigenvalues --   -0.65393  -0.65228  -0.64889  -0.64869  -0.64448
 Alpha  occ. eigenvalues --   -0.63743  -0.63317  -0.62658  -0.62224  -0.61848
 Alpha  occ. eigenvalues --   -0.61211  -0.60917  -0.60334  -0.58849  -0.58018
 Alpha  occ. eigenvalues --   -0.57632  -0.56974  -0.56644  -0.56289  -0.56014
 Alpha  occ. eigenvalues --   -0.55794  -0.54724  -0.54502  -0.54027  -0.53723
 Alpha  occ. eigenvalues --   -0.53377  -0.52902  -0.52599  -0.52456  -0.52293
 Alpha  occ. eigenvalues --   -0.51775  -0.51473  -0.50911  -0.50403  -0.50146
 Alpha  occ. eigenvalues --   -0.49809  -0.49573  -0.49088  -0.48896  -0.48585
 Alpha  occ. eigenvalues --   -0.48056  -0.47644  -0.47546  -0.47216  -0.47076
 Alpha  occ. eigenvalues --   -0.46899  -0.46336  -0.46289  -0.46198  -0.45827
 Alpha  occ. eigenvalues --   -0.45449  -0.45247  -0.45135  -0.44429  -0.44199
 Alpha  occ. eigenvalues --   -0.43823  -0.43657  -0.43470  -0.42898  -0.42644
 Alpha  occ. eigenvalues --   -0.42318  -0.42195  -0.42049  -0.41597  -0.41487
 Alpha  occ. eigenvalues --   -0.41221  -0.41077  -0.40869  -0.40463  -0.40413
 Alpha  occ. eigenvalues --   -0.40234  -0.39108  -0.37629  -0.36996  -0.36887
 Alpha  occ. eigenvalues --   -0.36731  -0.35092  -0.34066  -0.34032  -0.33812
 Alpha  occ. eigenvalues --   -0.33431  -0.33100  -0.32627  -0.32366  -0.32012
 Alpha  occ. eigenvalues --   -0.31806  -0.31733  -0.31641  -0.31374  -0.31086
 Alpha  occ. eigenvalues --   -0.30540  -0.30502  -0.29526  -0.29373  -0.28536
 Alpha virt. eigenvalues --   -0.15567  -0.08873  -0.08827  -0.06209  -0.05843
 Alpha virt. eigenvalues --   -0.05573  -0.04852  -0.04470  -0.03616  -0.02859
 Alpha virt. eigenvalues --   -0.02544  -0.01839  -0.01342  -0.01279  -0.00803

 Mulliken charges:
               1
     1  N   -0.811042
     2  H    0.370683
     3  H    0.466376
     4  H    0.399680
     5  C   -0.078976
     6  H    0.201772
     7  C    0.624781
     8  C   -0.399948
     9  H    0.184630
    10  H    0.252011
    11  O   -0.538637
    12  C    0.608392
    13  N   -0.717455
    14  H    0.347500
    15  H    0.363359
    16  O   -0.538568
    17  N   -0.616167
    18  H    0.389053
    19  C   -0.053322
    20  H    0.170491
    21  C    0.652620
    22  C   -0.096182
    23  H    0.143077
    24  O   -0.583973
    25  C   -0.264589
    26  H    0.135385
    27  H    0.147371
    28  C   -0.484455
    29  H    0.159479
    30  H    0.156308
    31  H    0.162071
    32  C   -0.451234
    33  H    0.154737
    34  H    0.146685
    35  H    0.152929
    36  N   -0.607914
    37  H    0.359424
    38  C   -0.046963
    39  H    0.166208
    40  C    0.638214
    41  C   -0.476583
    42  H    0.143014
    43  H    0.201148
    44  H    0.177042
    45  O   -0.529974
    46  N   -0.593745
    47  H    0.344101
    48  C   -0.093749
    49  H    0.199106
    50  C    0.616170
    51  C    0.109247
    52  H    0.114950
    53  O   -0.511360
    54  C   -0.444934
    55  H    0.145174
    56  H    0.165172
    57  H    0.166799
    58  O   -0.667249
    59  H    0.430278
    60  N   -0.607128
    61  H    0.358470
    62  C   -0.072543
    63  H    0.184059
    64  C    0.653950
    65  C   -0.049547
    66  H    0.156173
    67  H    0.140996
    68  O   -0.546166
    69  O   -0.615211
    70  H    0.411781
    71  N   -0.604317
    72  H    0.352477
    73  C   -0.203639
    74  H    0.180310
    75  H    0.203646
    76  C    0.593508
    77  O   -0.553787
    78  N   -0.607529
    79  H    0.360503
    80  C   -0.051677
    81  H    0.178035
    82  C    0.619533
    83  C   -0.262035
    84  H    0.140864
    85  H    0.166823
    86  O   -0.648906
    87  C   -0.266157
    88  H    0.172172
    89  H    0.165377
    90  C   -0.292840
    91  H    0.164661
    92  H    0.164217
    93  C   -0.206501
    94  H    0.231956
    95  H    0.229940
    96  N   -0.731292
    97  H    0.430225
    98  H    0.426750
    99  H    0.426531
   100  O   -0.552103
 Sum of Mulliken charges =   1.00000

 Dipole moment (field-independent basis, Debye):
    X=             19.9702    Y=             -1.1593    Z=            -42.3699  Tot=             46.8546
 Quadrupole moment (field-independent basis, Debye-Ang):
   XX=           -119.1882   YY=           -279.7768   ZZ=            164.6482
   XY=            -20.8438   XZ=           -179.8424   YZ=              9.4470

 Normal termination of Gaussian 16 at Wed Jun 29 00:44:06 2022.
