 Gaussian 16, Revision C.01,
 Gaussian 16:  ES64L-G16RevC.01  3-Jul-2019

 ----------------------------------------------------------------------
 # B3LYP/6-31G* empiricaldispersion=gd3bj guess=read geom=check nosymm
 integral(ultrafinegrid)
 ----------------------------------------------------------------------

 ------------------------------------------------------
 Candidate Structure: Conf:727 Charge calc in gas phase
 ------------------------------------------------------
 Structure from the checkpoint file:  "conf-727.chk"
 Charge =  1 Multiplicity = 1

                          Input orientation:
 ---------------------------------------------------------------------
 Center     Atomic      Atomic             Coordinates (Angstroms)
 Number     Number       Type             X           Y           Z
 ---------------------------------------------------------------------
      1          7           0       -4.804027    2.686887   -1.969320
      2          1           0       -5.704154    2.663259   -1.486673
      3          1           0       -4.917373    2.672737   -3.054134
      4          1           0       -4.266763    3.503970   -1.625817
      5          6           0       -3.940280    1.494045   -1.636918
      6          1           0       -4.597424    0.634868   -1.484258
      7          6           0       -3.221843    1.931315   -0.337966
      8          6           0       -2.973226    1.244721   -2.811221
      9          1           0       -2.187878    2.009230   -2.786094
     10          1           0       -2.479831    0.278655   -2.688353
     11          8           0       -2.945979    3.131497   -0.234772
     12          6           0       -3.650145    1.308834   -4.186046
     13          7           0       -3.147279    0.523977   -5.129884
     14          1           0       -3.601679    0.565098   -6.034134
     15          1           0       -2.477958   -0.249253   -4.907848
     16          8           0       -4.593307    2.108460   -4.409825
     17          7           0       -3.043994    1.026487    0.628465
     18          1           0       -3.102605    0.027102    0.449032
     19          6           0       -2.341787    1.389837    1.858104
     20          1           0       -1.472443    1.990340    1.569779
     21          6           0       -1.796473    0.086336    2.452342
     22          6           0       -3.273402    2.224451    2.782528
     23          1           0       -3.705545    2.971391    2.107520
     24          8           0       -1.937376   -0.984503    1.864459
     25          6           0       -2.548342    3.023143    3.884933
     26          1           0       -2.293515    2.367141    4.728263
     27          1           0       -3.282584    3.728474    4.292655
     28          6           0       -4.403788    1.368301    3.361568
     29          1           0       -4.014604    0.622039    4.063565
     30          1           0       -5.120240    1.993358    3.904591
     31          1           0       -4.949313    0.838772    2.573014
     32          6           0       -1.315284    3.805625    3.414363
     33          1           0       -0.977672    4.496896    4.192822
     34          1           0       -0.464564    3.157388    3.167827
     35          1           0       -1.545220    4.391664    2.517415
     36          7           0       -1.145958    0.217381    3.645021
     37          1           0       -0.937519    1.176189    3.887829
     38          6           0       -0.068115   -0.690857    4.044668
     39          1           0        0.222041   -0.367398    5.052116
     40          6           0        1.145433   -0.373579    3.141574
     41          6           0       -0.481223   -2.162319    4.124494
     42          1           0        0.284684   -2.739385    4.654588
     43          1           0       -1.408229   -2.247617    4.696762
     44          1           0       -0.655919   -2.589077    3.136829
     45          8           0        1.246048    0.739249    2.623992
     46          7           0        2.097733   -1.334041    2.993203
     47          1           0        1.840540   -2.294092    3.190226
     48          6           0        3.241759   -1.123198    2.088276
     49          1           0        3.463000   -0.053487    2.135804
     50          6           0        2.813782   -1.488659    0.656181
     51          6           0        4.462866   -1.899095    2.604650
     52          1           0        4.233921   -2.976821    2.564869
     53          8           0        3.284498   -2.448890    0.037197
     54          6           0        5.713347   -1.622698    1.783490
     55          1           0        5.598539   -2.002559    0.767324
     56          1           0        6.566667   -2.115493    2.257101
     57          1           0        5.917374   -0.546525    1.754651
     58          8           0        4.748278   -1.491800    3.936851
     59          1           0        3.919145   -1.523977    4.440421
     60          7           0        1.833380   -0.703998    0.156902
     61          1           0        1.508656    0.103600    0.683929
     62          6           0        1.090740   -1.091008   -1.035713
     63          1           0        1.062087   -2.181977   -1.088177
     64          6           0        1.801658   -0.586075   -2.292848
     65          6           0       -0.338622   -0.567017   -0.965536
     66          1           0       -0.813573   -0.950944   -0.062331
     67          1           0       -0.879492   -0.944560   -1.838027
     68          8           0        1.376576    0.353900   -2.976583
     69          8           0       -0.377899    0.859193   -0.878655
     70          1           0        0.108034    1.157401   -1.673178
     71          7           0        2.928446   -1.260958   -2.627379
     72          1           0        3.270961   -1.965185   -1.975613
     73          6           0        3.632593   -0.917679   -3.845622
     74          1           0        4.071461    0.083461   -3.802993
     75          1           0        4.437346   -1.642715   -4.000541
     76          6           0        2.683102   -0.915004   -5.049669
     77          8           0        2.857452   -0.050535   -5.938061
     78          7           0        1.746114   -1.871014   -5.066855
     79          1           0        1.687146   -2.438424   -4.208315
     80          6           0        0.351840   -1.670554   -5.498848
     81          1           0        0.221548   -0.620695   -5.782203
     82          6           0       -0.504996   -1.953253   -4.210337
     83          6           0       -0.120936   -2.601968   -6.626644
     84          1           0        0.209379   -3.623296   -6.401671
     85          1           0       -1.215536   -2.610030   -6.587238
     86          8           0       -1.668755   -1.470615   -4.187029
     87          6           0        0.313391   -2.198400   -8.041190
     88          1           0       -0.239946   -2.790666   -8.778440
     89          1           0       -0.018684   -1.160688   -8.203155
     90          6           0        1.830226   -2.345609   -8.298656
     91          1           0        2.033395   -3.286096   -8.821435
     92          1           0        2.368515   -2.402697   -7.349202
     93          6           0        2.438219   -1.221597   -9.130615
     94          1           0        3.517277   -1.350571   -9.240565
     95          1           0        1.992869   -1.144165  -10.126445
     96          7           0        2.236537    0.102351   -8.432027
     97          1           0        1.271404    0.424514   -8.528717
     98          1           0        2.843381    0.832321   -8.812971
     99          1           0        2.440598    0.003602   -7.350442
    100          8           0        0.050006   -2.650715   -3.336345
 ---------------------------------------------------------------------

 SCF Done:  E(RB3LYP) =  -2418.67325159     A.U. after    2 cycles

 Alpha  occ. eigenvalues --  -19.23083 -19.22444 -19.22291 -19.21367 -19.21267
 Alpha  occ. eigenvalues --  -19.20828 -19.20323 -19.20215 -19.19829 -19.16300
 Alpha  occ. eigenvalues --  -19.15829 -14.54836 -14.52678 -14.45840 -14.45786
 Alpha  occ. eigenvalues --  -14.44539 -14.43836 -14.43625 -14.43451 -14.43172
 Alpha  occ. eigenvalues --  -10.39432 -10.39312 -10.39020 -10.38168 -10.37999
 Alpha  occ. eigenvalues --  -10.36629 -10.36584 -10.36537 -10.36210 -10.34069
 Alpha  occ. eigenvalues --  -10.32896 -10.31665 -10.31434 -10.30833 -10.30477
 Alpha  occ. eigenvalues --  -10.30243 -10.30238 -10.29748 -10.29609 -10.28989
 Alpha  occ. eigenvalues --  -10.28639 -10.27150 -10.27088 -10.26534 -10.25735
 Alpha  occ. eigenvalues --  -10.24701 -10.24311 -10.22892  -1.14898  -1.14012
 Alpha  occ. eigenvalues --   -1.13825  -1.13629  -1.12764  -1.12083  -1.11149
 Alpha  occ. eigenvalues --   -1.09859  -1.09587  -1.08211  -1.07794  -1.07625
 Alpha  occ. eigenvalues --   -1.02350  -1.02236  -1.01755  -1.01464  -1.00797
 Alpha  occ. eigenvalues --   -0.99893  -0.99256  -0.99045  -0.90876  -0.89927
 Alpha  occ. eigenvalues --   -0.88337  -0.86819  -0.86230  -0.84552  -0.83285
 Alpha  occ. eigenvalues --   -0.81816  -0.81160  -0.79449  -0.78867  -0.77433
 Alpha  occ. eigenvalues --   -0.77152  -0.74133  -0.73913  -0.71201  -0.70925
 Alpha  occ. eigenvalues --   -0.69952  -0.69797  -0.69267  -0.68953  -0.68631
 Alpha  occ. eigenvalues --   -0.68322  -0.68073  -0.67256  -0.66681  -0.66105
 Alpha  occ. eigenvalues --   -0.65875  -0.65579  -0.64529  -0.64434  -0.62984
 Alpha  occ. eigenvalues --   -0.62323  -0.61871  -0.61491  -0.61034  -0.60320
 Alpha  occ. eigenvalues --   -0.59153  -0.59144  -0.58588  -0.57558  -0.57322
 Alpha  occ. eigenvalues --   -0.57234  -0.56390  -0.56230  -0.55987  -0.55584
 Alpha  occ. eigenvalues --   -0.55485  -0.55083  -0.54355  -0.54133  -0.53783
 Alpha  occ. eigenvalues --   -0.53251  -0.52996  -0.52927  -0.52618  -0.52265
 Alpha  occ. eigenvalues --   -0.51638  -0.51046  -0.50757  -0.50657  -0.50263
 Alpha  occ. eigenvalues --   -0.49893  -0.49670  -0.49490  -0.49366  -0.49311
 Alpha  occ. eigenvalues --   -0.48908  -0.48612  -0.48447  -0.48204  -0.47844
 Alpha  occ. eigenvalues --   -0.47623  -0.47186  -0.46986  -0.46680  -0.46514
 Alpha  occ. eigenvalues --   -0.46079  -0.45987  -0.45796  -0.45611  -0.45388
 Alpha  occ. eigenvalues --   -0.45161  -0.44640  -0.44485  -0.44079  -0.43901
 Alpha  occ. eigenvalues --   -0.43434  -0.43130  -0.43094  -0.43005  -0.42253
 Alpha  occ. eigenvalues --   -0.41921  -0.41095  -0.40649  -0.40046  -0.39813
 Alpha  occ. eigenvalues --   -0.39330  -0.37913  -0.37126  -0.36923  -0.36450
 Alpha  occ. eigenvalues --   -0.36149  -0.36029  -0.35836  -0.35554  -0.35107
 Alpha  occ. eigenvalues --   -0.34828  -0.33990  -0.33951  -0.33895  -0.33616
 Alpha  occ. eigenvalues --   -0.32047  -0.31757  -0.31570  -0.30424  -0.30116
 Alpha virt. eigenvalues --   -0.08970  -0.08646  -0.08520  -0.07927  -0.07477
 Alpha virt. eigenvalues --   -0.07144  -0.06307  -0.05218  -0.05008  -0.03453
 Alpha virt. eigenvalues --   -0.01648  -0.01275  -0.00589  -0.00130   0.00569

 Mulliken charges:
               1
     1  N   -0.768530
     2  H    0.390599
     3  H    0.449649
     4  H    0.405332
     5  C   -0.119085
     6  H    0.199008
     7  C    0.674327
     8  C   -0.401550
     9  H    0.213683
    10  H    0.245812
    11  O   -0.542367
    12  C    0.616491
    13  N   -0.757913
    14  H    0.341668
    15  H    0.419432
    16  O   -0.579668
    17  N   -0.611958
    18  H    0.365963
    19  C   -0.073778
    20  H    0.226669
    21  C    0.610580
    22  C   -0.080261
    23  H    0.158869
    24  O   -0.529154
    25  C   -0.287727
    26  H    0.138240
    27  H    0.155819
    28  C   -0.463798
    29  H    0.160737
    30  H    0.159708
    31  H    0.141517
    32  C   -0.485352
    33  H    0.162499
    34  H    0.163554
    35  H    0.170301
    36  N   -0.576062
    37  H    0.361866
    38  C   -0.078673
    39  H    0.191107
    40  C    0.634141
    41  C   -0.477897
    42  H    0.150153
    43  H    0.186663
    44  H    0.200513
    45  O   -0.535624
    46  N   -0.638814
    47  H    0.351700
    48  C   -0.092078
    49  H    0.202681
    50  C    0.631751
    51  C    0.146562
    52  H    0.129524
    53  O   -0.548667
    54  C   -0.465330
    55  H    0.170539
    56  H    0.173447
    57  H    0.151536
    58  O   -0.622669
    59  H    0.391447
    60  N   -0.615446
    61  H    0.382355
    62  C   -0.079665
    63  H    0.212639
    64  C    0.660552
    65  C   -0.139635
    66  H    0.179342
    67  H    0.196879
    68  O   -0.569910
    69  O   -0.661529
    70  H    0.420389
    71  N   -0.620837
    72  H    0.382210
    73  C   -0.206777
    74  H    0.203827
    75  H    0.189411
    76  C    0.614377
    77  O   -0.599365
    78  N   -0.573255
    79  H    0.376317
    80  C   -0.073198
    81  H    0.134892
    82  C    0.642460
    83  C   -0.269954
    84  H    0.165948
    85  H    0.169024
    86  O   -0.612779
    87  C   -0.284634
    88  H    0.169946
    89  H    0.102752
    90  C   -0.292843
    91  H    0.184093
    92  H    0.195587
    93  C   -0.190110
    94  H    0.204577
    95  H    0.197217
    96  N   -0.768105
    97  H    0.390457
    98  H    0.397716
    99  H    0.461202
   100  O   -0.583261
 Sum of Mulliken charges =   1.00000

 Dipole moment (field-independent basis, Debye):
    X=             -2.5808    Y=              2.4799    Z=            -19.7046  Tot=             20.0270
 Quadrupole moment (field-independent basis, Debye-Ang):
   XX=           -217.3706   YY=           -273.9397   ZZ=            -29.6695
   XY=            -32.3156   XZ=            -53.1942   YZ=              1.1711

 Normal termination of Gaussian 16 at Wed Jun 29 00:44:41 2022.
