 Gaussian 16, Revision C.01,
 Gaussian 16:  ES64L-G16RevC.01  3-Jul-2019

 ----------------------------------------------------------------------
 # B3LYP/6-31G* empiricaldispersion=gd3bj guess=read geom=check nosymm
 integral(ultrafinegrid)
 ----------------------------------------------------------------------

 ------------------------------------------------------
 Candidate Structure: Conf:538 Charge calc in gas phase
 ------------------------------------------------------
 Structure from the checkpoint file:  "conf-538.chk"
 Charge =  1 Multiplicity = 1

                          Input orientation:
 ---------------------------------------------------------------------
 Center     Atomic      Atomic             Coordinates (Angstroms)
 Number     Number       Type             X           Y           Z
 ---------------------------------------------------------------------
      1          7           0       -5.087504    1.862347   -1.526502
      2          1           0       -6.060186    1.765050   -1.224898
      3          1           0       -5.044861    1.794354   -2.545807
      4          1           0       -4.702062    2.799807   -1.178782
      5          6           0       -4.148110    0.901440   -0.829843
      6          1           0       -4.715272    0.087162   -0.379156
      7          6           0       -3.482859    1.814191    0.231532
      8          6           0       -3.128599    0.350538   -1.829801
      9          1           0       -3.656266   -0.065140   -2.699109
     10          1           0       -2.451972    1.128499   -2.199269
     11          8           0       -3.599715    3.042422    0.070703
     12          6           0       -2.306183   -0.781402   -1.184796
     13          7           0       -1.242094   -1.144377   -1.904414
     14          1           0       -0.498425   -1.657318   -1.438353
     15          1           0       -0.938009   -0.497257   -2.642466
     16          8           0       -2.683791   -1.287894   -0.119656
     17          7           0       -2.822638    1.201018    1.205325
     18          1           0       -2.687155    0.193447    1.058423
     19          6           0       -1.767737    1.886252    1.956103
     20          1           0       -2.076635    2.925491    2.099994
     21          6           0       -0.515057    1.794102    1.064095
     22          6           0       -1.553733    1.198120    3.328383
     23          1           0       -1.235179    0.165925    3.124134
     24          8           0       -0.424156    0.869233    0.250714
     25          6           0       -2.875337    1.168739    4.120017
     26          1           0       -3.685710    0.843214    3.457748
     27          1           0       -3.125104    2.192968    4.432331
     28          6           0       -0.429166    1.878528    4.119778
     29          1           0       -0.609135    2.959034    4.211037
     30          1           0       -0.380400    1.473383    5.133143
     31          1           0        0.547552    1.700122    3.669195
     32          6           0       -2.839500    0.245106    5.340545
     33          1           0       -3.816263    0.219074    5.834603
     34          1           0       -2.587692   -0.780911    5.046070
     35          1           0       -2.105792    0.569729    6.085049
     36          7           0        0.451723    2.715253    1.224655
     37          1           0        0.378782    3.382324    1.981539
     38          6           0        1.744357    2.599990    0.533714
     39          1           0        1.524607    2.203502   -0.463257
     40          6           0        2.670219    1.581240    1.233884
     41          6           0        2.412269    3.961580    0.416143
     42          1           0        3.351063    3.853159   -0.129448
     43          1           0        1.759374    4.656698   -0.120585
     44          1           0        2.652230    4.376158    1.401058
     45          8           0        3.830411    1.859668    1.533915
     46          7           0        2.120160    0.358667    1.444812
     47          1           0        1.263386    0.133109    0.945689
     48          6           0        2.900571   -0.748843    1.976924
     49          1           0        3.709409   -0.303681    2.564617
     50          6           0        3.491319   -1.543321    0.787882
     51          6           0        2.039286   -1.653706    2.867780
     52          1           0        1.349202   -2.212900    2.219973
     53          8           0        3.319752   -2.744623    0.626010
     54          6           0        2.890337   -2.633839    3.668592
     55          1           0        3.446623   -3.293459    3.000109
     56          1           0        2.252504   -3.259616    4.305841
     57          1           0        3.589877   -2.089755    4.313175
     58          8           0        1.297875   -0.786525    3.735565
     59          1           0        0.893670   -1.349337    4.413718
     60          7           0        4.159752   -0.757754   -0.110884
     61          1           0        4.224094    0.234109    0.102786
     62          6           0        4.128864   -1.060395   -1.523443
     63          1           0        4.896014   -1.799485   -1.795632
     64          6           0        4.391519    0.243216   -2.267747
     65          6           0        2.744308   -1.653333   -1.986460
     66          1           0        2.747592   -2.713937   -1.737393
     67          1           0        2.679178   -1.546356   -3.082179
     68          8           0        4.090391    1.343034   -1.808977
     69          8           0        1.637287   -1.090424   -1.336019
     70          1           0        1.451854   -0.185461   -1.690534
     71          7           0        4.913071    0.113696   -3.522458
     72          1           0        5.157233   -0.803380   -3.867687
     73          6           0        5.071983    1.266401   -4.395147
     74          1           0        5.299195    2.131298   -3.765390
     75          1           0        5.897026    1.096066   -5.087148
     76          6           0        3.809771    1.540527   -5.227283
     77          8           0        3.902468    1.498291   -6.478724
     78          7           0        2.717931    1.771768   -4.508433
     79          1           0        2.809991    1.755985   -3.485539
     80          6           0        1.300555    1.872780   -4.874154
     81          1           0        1.035384    2.937452   -4.932560
     82          6           0        0.509467    1.265029   -3.660328
     83          6           0        0.906172    1.206679   -6.189188
     84          1           0       -0.175170    1.340385   -6.279596
     85          1           0        1.363907    1.758662   -7.014951
     86          8           0       -0.651741    0.855694   -3.896144
     87          6           0        1.214868   -0.298172   -6.242025
     88          1           0        2.203656   -0.508110   -5.815766
     89          1           0        0.490645   -0.798740   -5.593965
     90          6           0        1.137963   -0.901482   -7.654428
     91          1           0        0.307518   -0.453326   -8.217946
     92          1           0        0.914112   -1.972748   -7.593830
     93          6           0        2.426027   -0.800588   -8.467717
     94          1           0        3.257155   -1.285581   -7.949202
     95          1           0        2.315202   -1.255265   -9.455309
     96          7           0        2.864694    0.629261   -8.673027
     97          1           0        3.679835    0.682490   -9.290659
     98          1           0        3.159177    1.073630   -7.727649
     99          1           0        2.118406    1.189413   -9.093013
    100          8           0        1.145027    1.247768   -2.574403
 ---------------------------------------------------------------------

 SCF Done:  E(RB3LYP) =  -2418.66357595     A.U. after    2 cycles

 Alpha  occ. eigenvalues --  -19.24075 -19.23038 -19.20351 -19.19486 -19.19441
 Alpha  occ. eigenvalues --  -19.18770 -19.18732 -19.17230 -19.17206 -19.16503
 Alpha  occ. eigenvalues --  -19.16334 -14.57291 -14.56251 -14.45566 -14.45366
 Alpha  occ. eigenvalues --  -14.45015 -14.43411 -14.40019 -14.39882 -14.39849
 Alpha  occ. eigenvalues --  -10.40218 -10.39301 -10.37329 -10.37179 -10.37158
 Alpha  occ. eigenvalues --  -10.36500 -10.35934 -10.35327 -10.33358 -10.33215
 Alpha  occ. eigenvalues --  -10.31996 -10.31192 -10.31097 -10.31095 -10.30060
 Alpha  occ. eigenvalues --  -10.30059 -10.29712 -10.28519 -10.28463 -10.28408
 Alpha  occ. eigenvalues --  -10.28168 -10.27442 -10.26285 -10.24447 -10.23306
 Alpha  occ. eigenvalues --  -10.23240 -10.23063 -10.21780  -1.16462  -1.13980
 Alpha  occ. eigenvalues --   -1.12493  -1.11425  -1.11139  -1.10893  -1.10734
 Alpha  occ. eigenvalues --   -1.10097  -1.08840  -1.07974  -1.06848  -1.06647
 Alpha  occ. eigenvalues --   -1.02843  -1.02825  -1.01765  -1.00629  -0.99561
 Alpha  occ. eigenvalues --   -0.97706  -0.96488  -0.96164  -0.91709  -0.90269
 Alpha  occ. eigenvalues --   -0.87825  -0.87417  -0.84379  -0.83524  -0.81930
 Alpha  occ. eigenvalues --   -0.80945  -0.80671  -0.79071  -0.78770  -0.76455
 Alpha  occ. eigenvalues --   -0.75290  -0.74895  -0.72175  -0.71363  -0.71306
 Alpha  occ. eigenvalues --   -0.70919  -0.70661  -0.70452  -0.69140  -0.68648
 Alpha  occ. eigenvalues --   -0.68154  -0.68007  -0.66054  -0.65524  -0.65067
 Alpha  occ. eigenvalues --   -0.64393  -0.64080  -0.63155  -0.62922  -0.62250
 Alpha  occ. eigenvalues --   -0.61756  -0.61559  -0.61197  -0.60187  -0.59423
 Alpha  occ. eigenvalues --   -0.58465  -0.58324  -0.57978  -0.57512  -0.57290
 Alpha  occ. eigenvalues --   -0.56803  -0.56057  -0.55834  -0.55435  -0.55281
 Alpha  occ. eigenvalues --   -0.55015  -0.53987  -0.53607  -0.53223  -0.53136
 Alpha  occ. eigenvalues --   -0.52612  -0.52374  -0.52075  -0.51802  -0.51064
 Alpha  occ. eigenvalues --   -0.51006  -0.50561  -0.50213  -0.50098  -0.49866
 Alpha  occ. eigenvalues --   -0.49623  -0.49204  -0.48947  -0.48608  -0.48229
 Alpha  occ. eigenvalues --   -0.47665  -0.47508  -0.47261  -0.46940  -0.46709
 Alpha  occ. eigenvalues --   -0.46613  -0.46244  -0.46197  -0.45934  -0.45616
 Alpha  occ. eigenvalues --   -0.45106  -0.44918  -0.44426  -0.44089  -0.44046
 Alpha  occ. eigenvalues --   -0.43727  -0.43550  -0.43496  -0.43371  -0.43012
 Alpha  occ. eigenvalues --   -0.42851  -0.42372  -0.41945  -0.41335  -0.40618
 Alpha  occ. eigenvalues --   -0.40200  -0.39648  -0.39191  -0.38929  -0.38710
 Alpha  occ. eigenvalues --   -0.38448  -0.38093  -0.37412  -0.36325  -0.36036
 Alpha  occ. eigenvalues --   -0.34372  -0.34254  -0.34108  -0.33859  -0.33198
 Alpha  occ. eigenvalues --   -0.32938  -0.32699  -0.32318  -0.32209  -0.31824
 Alpha  occ. eigenvalues --   -0.31527  -0.31028  -0.29902  -0.29243  -0.28186
 Alpha virt. eigenvalues --   -0.09410  -0.09091  -0.08652  -0.08358  -0.06000
 Alpha virt. eigenvalues --   -0.05897  -0.05307  -0.04002  -0.03641  -0.03212
 Alpha virt. eigenvalues --   -0.02952  -0.01875  -0.01382  -0.00725   0.00493

 Mulliken charges:
               1
     1  N   -0.762440
     2  H    0.409827
     3  H    0.407286
     4  H    0.428899
     5  C   -0.107274
     6  H    0.228593
     7  C    0.638281
     8  C   -0.410367
     9  H    0.181584
    10  H    0.229013
    11  O   -0.553819
    12  C    0.642068
    13  N   -0.776085
    14  H    0.370658
    15  H    0.398979
    16  O   -0.556193
    17  N   -0.584569
    18  H    0.404273
    19  C   -0.089780
    20  H    0.177896
    21  C    0.642307
    22  C   -0.090521
    23  H    0.155821
    24  O   -0.556027
    25  C   -0.254261
    26  H    0.139005
    27  H    0.136341
    28  C   -0.484697
    29  H    0.126996
    30  H    0.163994
    31  H    0.196350
    32  C   -0.452054
    33  H    0.155105
    34  H    0.146422
    35  H    0.155560
    36  N   -0.586857
    37  H    0.339473
    38  C   -0.104067
    39  H    0.241932
    40  C    0.616342
    41  C   -0.461786
    42  H    0.192309
    43  H    0.144345
    44  H    0.156623
    45  O   -0.538464
    46  N   -0.605100
    47  H    0.389063
    48  C   -0.088835
    49  H    0.196237
    50  C    0.647397
    51  C    0.151465
    52  H    0.140847
    53  O   -0.533084
    54  C   -0.489642
    55  H    0.191624
    56  H    0.136878
    57  H    0.154915
    58  O   -0.635392
    59  H    0.393184
    60  N   -0.638569
    61  H    0.386972
    62  C   -0.014427
    63  H    0.153407
    64  C    0.589862
    65  C   -0.061275
    66  H    0.192597
    67  H    0.102696
    68  O   -0.525260
    69  O   -0.666460
    70  H    0.471579
    71  N   -0.595016
    72  H    0.338019
    73  C   -0.234977
    74  H    0.221727
    75  H    0.183318
    76  C    0.615365
    77  O   -0.618861
    78  N   -0.599958
    79  H    0.420011
    80  C   -0.056945
    81  H    0.176399
    82  C    0.617508
    83  C   -0.272336
    84  H    0.179875
    85  H    0.096910
    86  O   -0.594544
    87  C   -0.291135
    88  H    0.143512
    89  H    0.192150
    90  C   -0.289464
    91  H    0.159686
    92  H    0.186750
    93  C   -0.190753
    94  H    0.204687
    95  H    0.200967
    96  N   -0.766547
    97  H    0.401926
    98  H    0.474525
    99  H    0.393504
   100  O   -0.594002
 Sum of Mulliken charges =   1.00000

 Dipole moment (field-independent basis, Debye):
    X=             -5.0957    Y=              5.1214    Z=            -27.4983  Tot=             28.4316
 Quadrupole moment (field-independent basis, Debye-Ang):
   XX=           -178.0484   YY=           -275.8153   ZZ=            -23.8965
   XY=            -28.4181   XZ=            -65.9685   YZ=             -8.6282

 Normal termination of Gaussian 16 at Wed Jun 29 00:45:30 2022.
