 Gaussian 16, Revision C.01,
 Gaussian 16:  ES64L-G16RevC.01  3-Jul-2019

 ----------------------------------------------------------------------
 # B3LYP/6-31G* empiricaldispersion=gd3bj guess=read geom=check nosymm
 integral(ultrafinegrid)
 ----------------------------------------------------------------------

 ------------------------------------------------------
 Candidate Structure: Conf:472 Charge calc in gas phase
 ------------------------------------------------------
 Structure from the checkpoint file:  "conf-472.chk"
 Charge =  1 Multiplicity = 1

                          Input orientation:
 ---------------------------------------------------------------------
 Center     Atomic      Atomic             Coordinates (Angstroms)
 Number     Number       Type             X           Y           Z
 ---------------------------------------------------------------------
      1          7           0       -4.365978   -3.942065    3.285104
      2          1           0       -4.768583   -3.975066    4.223927
      3          1           0       -4.136064   -4.946873    2.922456
      4          1           0       -5.011874   -3.402707    2.680926
      5          6           0       -3.058679   -3.201894    3.250190
      6          1           0       -2.580440   -3.308894    4.226959
      7          6           0       -3.428368   -1.738408    2.943567
      8          6           0       -2.168001   -3.797599    2.141040
      9          1           0       -2.593211   -3.530560    1.165178
     10          1           0       -1.170519   -3.352264    2.181106
     11          8           0       -4.529300   -1.501744    2.446651
     12          6           0       -2.096071   -5.327443    2.216677
     13          7           0       -0.913519   -5.871514    1.988452
     14          1           0       -0.805292   -6.879021    1.933982
     15          1           0       -0.078863   -5.294371    1.809543
     16          8           0       -3.134895   -5.990614    2.453322
     17          7           0       -2.510139   -0.804261    3.242591
     18          1           0       -1.563607   -1.108727    3.436665
     19          6           0       -2.659171    0.557220    2.732156
     20          1           0       -3.694461    0.858556    2.916646
     21          6           0       -2.372860    0.512606    1.220019
     22          6           0       -1.692173    1.524377    3.465562
     23          1           0       -0.669762    1.235807    3.176585
     24          8           0       -1.575353   -0.320654    0.769308
     25          6           0       -1.827620    1.380258    4.995471
     26          1           0       -1.739383    0.324396    5.275121
     27          1           0       -2.840990    1.686974    5.290080
     28          6           0       -1.935327    2.976144    3.028186
     29          1           0       -2.948360    3.295123    3.306931
     30          1           0       -1.233285    3.645764    3.529295
     31          1           0       -1.806645    3.132899    1.955235
     32          6           0       -0.788295    2.181672    5.784921
     33          1           0       -0.865052    1.957734    6.853491
     34          1           0        0.229815    1.930835    5.463705
     35          1           0       -0.920657    3.261011    5.667611
     36          7           0       -2.994648    1.426341    0.453067
     37          1           0       -3.592523    2.110620    0.897976
     38          6           0       -2.631600    1.667912   -0.952647
     39          1           0       -2.642210    0.698444   -1.459086
     40          6           0       -1.204547    2.268884   -0.965687
     41          6           0       -3.633053    2.623223   -1.585668
     42          1           0       -3.411820    2.744916   -2.649350
     43          1           0       -4.653011    2.239599   -1.486212
     44          1           0       -3.557104    3.608491   -1.116241
     45          8           0       -1.004604    3.446526   -0.688714
     46          7           0       -0.238933    1.359440   -1.227579
     47          1           0       -0.495316    0.402114   -1.441747
     48          6           0        1.188538    1.567823   -1.116459
     49          1           0        1.458090    2.553742   -1.509112
     50          6           0        1.837637    0.429710   -1.914642
     51          6           0        1.679859    1.433227    0.364935
     52          1           0        2.774264    1.378594    0.345592
     53          8           0        1.170167   -0.545485   -2.275300
     54          6           0        1.279717    2.605140    1.253519
     55          1           0        1.650931    3.553417    0.852518
     56          1           0        1.702331    2.452063    2.251492
     57          1           0        0.197512    2.692162    1.335014
     58          8           0        1.267271    0.183693    0.899948
     59          1           0        0.295169    0.103109    0.819424
     60          7           0        3.177549    0.500062   -2.088914
     61          1           0        3.675713    1.282724   -1.683163
     62          6           0        3.985551   -0.670891   -2.453149
     63          1           0        3.445508   -1.221421   -3.227159
     64          6           0        4.146833   -1.557258   -1.195792
     65          6           0        5.355284   -0.228056   -2.981435
     66          1           0        5.811639    0.469268   -2.260210
     67          1           0        5.222074    0.302448   -3.928367
     68          8           0        5.210103   -1.647604   -0.589896
     69          8           0        6.181118   -1.340450   -3.225782
     70          1           0        6.406823   -1.691106   -2.345711
     71          7           0        2.994042   -2.179170   -0.809820
     72          1           0        2.152689   -1.889275   -1.305733
     73          6           0        2.800117   -2.652930    0.550879
     74          1           0        3.784513   -2.869290    0.978165
     75          1           0        2.308605   -1.888397    1.158863
     76          6           0        1.948856   -3.909745    0.592858
     77          8           0        1.164000   -4.107848    1.533553
     78          7           0        2.112279   -4.764550   -0.432790
     79          1           0        2.820971   -4.529621   -1.116462
     80          6           0        1.499715   -6.079564   -0.474007
     81          1           0        0.412281   -5.977790   -0.417596
     82          6           0        1.962853   -6.962030    0.687057
     83          6           0        1.872612   -6.782374   -1.804494
     84          1           0        1.316235   -6.283431   -2.605076
     85          1           0        2.938836   -6.604188   -1.996791
     86          8           0        1.006680   -7.825460    1.050564
     87          6           0        1.606910   -8.304341   -1.831446
     88          1           0        0.713553   -8.524488   -1.239555
     89          1           0        1.369587   -8.592347   -2.860422
     90          6           0        2.806765   -9.162195   -1.341920
     91          1           0        3.518715   -8.542423   -0.785560
     92          1           0        3.355400   -9.522000   -2.219022
     93          6           0        2.452672  -10.382659   -0.474934
     94          1           0        1.487743  -10.802548   -0.778782
     95          1           0        3.206354  -11.166977   -0.620722
     96          7           0        2.352196  -10.033239    0.967726
     97          1           0        2.082073  -10.852587    1.510575
     98          1           0        1.480919   -8.747571    1.226930
     99          1           0        3.267050   -9.739279    1.312440
    100          8           0        3.100261   -6.961729    1.111059
 ---------------------------------------------------------------------

 SCF Done:  E(RB3LYP) =  -2418.68362650     A.U. after    1 cycles

 Alpha  occ. eigenvalues --  -19.25600 -19.24131 -19.23863 -19.22880 -19.22405
 Alpha  occ. eigenvalues --  -19.22093 -19.21833 -19.20629 -19.20485 -19.20283
 Alpha  occ. eigenvalues --  -19.19797 -14.55134 -14.49063 -14.47294 -14.46421
 Alpha  occ. eigenvalues --  -14.45383 -14.45222 -14.44424 -14.43945 -14.43307
 Alpha  occ. eigenvalues --  -10.42445 -10.41150 -10.39830 -10.39258 -10.38997
 Alpha  occ. eigenvalues --  -10.38527 -10.38340 -10.37209 -10.37146 -10.34497
 Alpha  occ. eigenvalues --  -10.33099 -10.32906 -10.32864 -10.32548 -10.32092
 Alpha  occ. eigenvalues --  -10.31587 -10.30613 -10.30283 -10.30057 -10.29907
 Alpha  occ. eigenvalues --  -10.28070 -10.27492 -10.26753 -10.26610 -10.26518
 Alpha  occ. eigenvalues --  -10.26371 -10.25583 -10.25071  -1.17974  -1.15928
 Alpha  occ. eigenvalues --   -1.15591  -1.14786  -1.14310  -1.13144  -1.12201
 Alpha  occ. eigenvalues --   -1.11717  -1.10136  -1.09974  -1.08048  -1.07435
 Alpha  occ. eigenvalues --   -1.05703  -1.03385  -1.02720  -1.02415  -1.01392
 Alpha  occ. eigenvalues --   -1.01073  -1.00135  -0.98711  -0.92660  -0.90671
 Alpha  occ. eigenvalues --   -0.88905  -0.87935  -0.86239  -0.84610  -0.83790
 Alpha  occ. eigenvalues --   -0.83401  -0.81300  -0.80674  -0.79599  -0.78931
 Alpha  occ. eigenvalues --   -0.77390  -0.74698  -0.73123  -0.72158  -0.72048
 Alpha  occ. eigenvalues --   -0.71491  -0.71250  -0.71117  -0.70195  -0.69568
 Alpha  occ. eigenvalues --   -0.68924  -0.68586  -0.68471  -0.66787  -0.66647
 Alpha  occ. eigenvalues --   -0.66270  -0.66108  -0.65821  -0.64210  -0.64083
 Alpha  occ. eigenvalues --   -0.62974  -0.62071  -0.61399  -0.60965  -0.60272
 Alpha  occ. eigenvalues --   -0.59926  -0.59498  -0.59333  -0.58868  -0.58600
 Alpha  occ. eigenvalues --   -0.58043  -0.57839  -0.57177  -0.56472  -0.56229
 Alpha  occ. eigenvalues --   -0.56011  -0.55771  -0.55523  -0.55194  -0.54880
 Alpha  occ. eigenvalues --   -0.54525  -0.53969  -0.53297  -0.53025  -0.52959
 Alpha  occ. eigenvalues --   -0.52599  -0.52247  -0.52038  -0.51853  -0.51403
 Alpha  occ. eigenvalues --   -0.51092  -0.50766  -0.50594  -0.50181  -0.50135
 Alpha  occ. eigenvalues --   -0.49938  -0.49523  -0.49282  -0.49067  -0.48547
 Alpha  occ. eigenvalues --   -0.48343  -0.47825  -0.47722  -0.47498  -0.47339
 Alpha  occ. eigenvalues --   -0.47292  -0.47177  -0.46704  -0.46460  -0.46311
 Alpha  occ. eigenvalues --   -0.45856  -0.45528  -0.45358  -0.45189  -0.45049
 Alpha  occ. eigenvalues --   -0.44549  -0.44297  -0.44014  -0.42682  -0.42038
 Alpha  occ. eigenvalues --   -0.41985  -0.41722  -0.41618  -0.41393  -0.40821
 Alpha  occ. eigenvalues --   -0.40151  -0.40122  -0.38939  -0.38429  -0.38041
 Alpha  occ. eigenvalues --   -0.37958  -0.37503  -0.37347  -0.36603  -0.36370
 Alpha  occ. eigenvalues --   -0.36159  -0.36001  -0.35540  -0.35452  -0.34278
 Alpha  occ. eigenvalues --   -0.33866  -0.33516  -0.33343  -0.32643  -0.32314
 Alpha virt. eigenvalues --   -0.11648  -0.09510  -0.09257  -0.08998  -0.07684
 Alpha virt. eigenvalues --   -0.07231  -0.06863  -0.06696  -0.05728  -0.04433
 Alpha virt. eigenvalues --   -0.01914  -0.01309  -0.01134  -0.00759   0.00142

 Mulliken charges:
               1
     1  N   -0.764707
     2  H    0.398905
     3  H    0.452249
     4  H    0.409705
     5  C   -0.127573
     6  H    0.210359
     7  C    0.656389
     8  C   -0.407793
     9  H    0.218682
    10  H    0.226206
    11  O   -0.525467
    12  C    0.637079
    13  N   -0.782073
    14  H    0.379276
    15  H    0.435989
    16  O   -0.573600
    17  N   -0.589504
    18  H    0.355366
    19  C   -0.059231
    20  H    0.183146
    21  C    0.644640
    22  C   -0.122506
    23  H    0.149654
    24  O   -0.573974
    25  C   -0.250092
    26  H    0.129035
    27  H    0.145073
    28  C   -0.498671
    29  H    0.148227
    30  H    0.182320
    31  H    0.182016
    32  C   -0.454774
    33  H    0.162973
    34  H    0.152007
    35  H    0.164027
    36  N   -0.581786
    37  H    0.350981
    38  C   -0.040732
    39  H    0.172562
    40  C    0.626984
    41  C   -0.485801
    42  H    0.184233
    43  H    0.166053
    44  H    0.187852
    45  O   -0.528878
    46  N   -0.610494
    47  H    0.365515
    48  C   -0.073974
    49  H    0.188700
    50  C    0.644268
    51  C    0.123234
    52  H    0.138465
    53  O   -0.550996
    54  C   -0.460841
    55  H    0.162329
    56  H    0.157321
    57  H    0.169197
    58  O   -0.670557
    59  H    0.438460
    60  N   -0.600105
    61  H    0.344818
    62  C   -0.092921
    63  H    0.199630
    64  C    0.613638
    65  C   -0.035860
    66  H    0.131968
    67  H    0.167366
    68  O   -0.521981
    69  O   -0.618227
    70  H    0.418936
    71  N   -0.641685
    72  H    0.379102
    73  C   -0.238974
    74  H    0.224709
    75  H    0.218300
    76  C    0.618172
    77  O   -0.571638
    78  N   -0.576435
    79  H    0.355996
    80  C   -0.004430
    81  H    0.163479
    82  C    0.597880
    83  C   -0.317096
    84  H    0.166454
    85  H    0.160610
    86  O   -0.642552
    87  C   -0.288782
    88  H    0.166067
    89  H    0.157709
    90  C   -0.296116
    91  H    0.172450
    92  H    0.161209
    93  C   -0.146024
    94  H    0.166357
    95  H    0.159483
    96  N   -0.785499
    97  H    0.339332
    98  H    0.462282
    99  H    0.350814
   100  O   -0.483890
 Sum of Mulliken charges =   1.00000

 Dipole moment (field-independent basis, Debye):
    X=             -7.8954    Y=            -15.8861    Z=              8.4839  Tot=             19.6642
 Quadrupole moment (field-independent basis, Debye-Ang):
   XX=           -241.2651   YY=           -117.6790   ZZ=           -233.8165
   XY=              0.0448   XZ=            -38.2129   YZ=            -16.1865

 Normal termination of Gaussian 16 at Wed Jun 29 00:44:26 2022.
