 Gaussian 16, Revision C.01,
 Gaussian 16:  ES64L-G16RevC.01  3-Jul-2019

 ----------------------------------------------------------------------
 # B3LYP/6-31G* empiricaldispersion=gd3bj guess=read geom=check nosymm
 integral(ultrafinegrid)
 ----------------------------------------------------------------------

 ------------------------------------------------------
 Candidate Structure: Conf:962 Charge calc in gas phase
 ------------------------------------------------------
 Structure from the checkpoint file:  "conf-962.chk"
 Charge =  1 Multiplicity = 1

                          Input orientation:
 ---------------------------------------------------------------------
 Center     Atomic      Atomic             Coordinates (Angstroms)
 Number     Number       Type             X           Y           Z
 ---------------------------------------------------------------------
      1          7           0       -7.068653    3.235711    4.239012
      2          1           0       -7.202297    3.021449    5.231800
      3          1           0       -7.931183    3.642568    3.867979
      4          1           0       -6.240277    3.906895    4.145874
      5          6           0       -6.556133    2.057758    3.438148
      6          1           0       -6.827677    1.134015    3.951253
      7          6           0       -5.021060    2.306369    3.447450
      8          6           0       -7.145119    2.114862    2.011327
      9          1           0       -8.187336    1.775392    2.029732
     10          1           0       -7.106411    3.142718    1.639879
     11          8           0       -4.655832    3.470889    3.665605
     12          6           0       -6.265275    1.286965    1.058072
     13          7           0       -6.475762   -0.053023    1.095078
     14          1           0       -5.782675   -0.647535    0.653186
     15          1           0       -7.313022   -0.473069    1.470629
     16          8           0       -5.362267    1.825558    0.441086
     17          7           0       -4.250675    1.254428    3.211223
     18          1           0       -4.670545    0.369744    2.911078
     19          6           0       -2.870216    1.356221    2.726376
     20          1           0       -2.730276    2.368548    2.336975
     21          6           0       -2.799493    0.336895    1.571987
     22          6           0       -1.812568    1.074433    3.821333
     23          1           0       -0.840318    1.148500    3.313555
     24          8           0       -3.638599   -0.573260    1.492219
     25          6           0       -1.943666   -0.349446    4.390532
     26          1           0       -1.981418   -1.069342    3.564690
     27          1           0       -2.906372   -0.434253    4.914433
     28          6           0       -1.868323    2.155310    4.906786
     29          1           0       -2.796186    2.079740    5.485922
     30          1           0       -1.031647    2.051097    5.602144
     31          1           0       -1.825692    3.159667    4.474325
     32          6           0       -0.806069   -0.739610    5.337808
     33          1           0       -0.906391   -1.783956    5.649999
     34          1           0        0.168286   -0.631672    4.847094
     35          1           0       -0.795206   -0.124871    6.243342
     36          7           0       -1.779823    0.497896    0.730414
     37          1           0       -1.078888    1.228135    0.845180
     38          6           0       -1.525597   -0.371042   -0.407016
     39          1           0       -1.673473   -1.410107   -0.095390
     40          6           0       -0.056993   -0.122597   -0.786342
     41          6           0       -2.457031   -0.038624   -1.584205
     42          1           0       -2.313831   -0.745674   -2.407163
     43          1           0       -3.498034   -0.082990   -1.255253
     44          1           0       -2.252505    0.971437   -1.952576
     45          8           0        0.528458    0.880319   -0.357626
     46          7           0        0.490917   -1.021324   -1.613943
     47          1           0       -0.045483   -1.790093   -2.004843
     48          6           0        1.847619   -0.902464   -2.145597
     49          1           0        2.521462   -0.505932   -1.383982
     50          6           0        1.823436    0.076182   -3.327222
     51          6           0        2.306899   -2.296985   -2.599026
     52          1           0        3.235304   -2.167927   -3.166312
     53          8           0        1.800408   -0.311899   -4.510972
     54          6           0        2.574998   -3.224979   -1.428594
     55          1           0        3.444821   -2.853651   -0.879370
     56          1           0        2.791531   -4.229815   -1.802960
     57          1           0        1.709493   -3.287695   -0.759044
     58          8           0        1.287263   -2.863092   -3.433208
     59          1           0        1.269334   -2.278681   -4.215707
     60          7           0        1.773232    1.374736   -2.985102
     61          1           0        1.904161    1.591401   -2.002110
     62          6           0        1.598474    2.474105   -3.925286
     63          1           0        0.894187    2.152964   -4.700554
     64          6           0        2.929574    2.847666   -4.614116
     65          6           0        1.025411    3.685532   -3.176327
     66          1           0        1.695305    3.930274   -2.336581
     67          1           0        0.051280    3.411668   -2.759246
     68          8           0        3.455297    3.953242   -4.480923
     69          8           0        0.833255    4.785226   -4.032864
     70          1           0        1.733129    5.045890   -4.303722
     71          7           0        3.459634    1.848763   -5.366356
     72          1           0        2.962642    0.955886   -5.366272
     73          6           0        4.763644    1.944095   -5.982101
     74          1           0        4.730771    1.627136   -7.027742
     75          1           0        5.069569    2.994454   -5.946462
     76          6           0        5.815015    1.084255   -5.281759
     77          8           0        6.710085    0.541803   -5.986394
     78          7           0        5.710953    0.972785   -3.969503
     79          1           0        4.890304    1.341752   -3.472537
     80          6           0        6.365077   -0.009032   -3.111996
     81          1           0        6.604398   -0.891105   -3.709712
     82          6           0        5.292809   -0.438416   -2.045554
     83          6           0        7.595470    0.561507   -2.391991
     84          1           0        7.249425    1.440682   -1.837149
     85          1           0        7.905164   -0.175892   -1.640975
     86          8           0        5.478648   -1.548596   -1.522527
     87          6           0        8.784523    0.958388   -3.283845
     88          1           0        8.419673    1.393714   -4.222116
     89          1           0        9.353534    1.755653   -2.792350
     90          6           0        9.780344   -0.179673   -3.566175
     91          1           0       10.230246   -0.505431   -2.620374
     92          1           0       10.609834    0.192587   -4.184303
     93          6           0        9.203295   -1.434531   -4.212349
     94          1           0        9.977823   -2.192440   -4.358893
     95          1           0        8.405443   -1.871947   -3.610111
     96          7           0        8.613070   -1.130233   -5.564879
     97          1           0        8.258620   -1.979415   -6.012941
     98          1           0        9.325523   -0.737290   -6.186997
     99          1           0        7.774480   -0.400978   -5.564807
    100          8           0        4.387913    0.426829   -1.861066
 ---------------------------------------------------------------------

 SCF Done:  E(RB3LYP) =  -2418.63429151     A.U. after    2 cycles

 Alpha  occ. eigenvalues --  -19.26718 -19.22952 -19.21066 -19.20143 -19.18870
 Alpha  occ. eigenvalues --  -19.18190 -19.17757 -19.17538 -19.17519 -19.11378
 Alpha  occ. eigenvalues --  -19.10516 -14.60666 -14.52177 -14.48626 -14.47124
 Alpha  occ. eigenvalues --  -14.44426 -14.42530 -14.41558 -14.41544 -14.41234
 Alpha  occ. eigenvalues --  -10.43305 -10.41790 -10.41182 -10.37994 -10.35950
 Alpha  occ. eigenvalues --  -10.35738 -10.34958 -10.34399 -10.34283 -10.33237
 Alpha  occ. eigenvalues --  -10.33059 -10.31078 -10.29207 -10.28676 -10.28370
 Alpha  occ. eigenvalues --  -10.28056 -10.27836 -10.27599 -10.27148 -10.26735
 Alpha  occ. eigenvalues --  -10.26561 -10.25764 -10.25352 -10.25232 -10.25220
 Alpha  occ. eigenvalues --  -10.24128 -10.23801 -10.19802  -1.19400  -1.15044
 Alpha  occ. eigenvalues --   -1.14307  -1.12927  -1.10943  -1.10765  -1.09787
 Alpha  occ. eigenvalues --   -1.09031  -1.07056  -1.05641  -1.05287  -1.05211
 Alpha  occ. eigenvalues --   -1.04527  -1.02124  -1.01229  -0.99314  -0.98999
 Alpha  occ. eigenvalues --   -0.98098  -0.97156  -0.95619  -0.94044  -0.90076
 Alpha  occ. eigenvalues --   -0.88127  -0.85675  -0.83992  -0.83361  -0.82285
 Alpha  occ. eigenvalues --   -0.81294  -0.80366  -0.78884  -0.78706  -0.76488
 Alpha  occ. eigenvalues --   -0.74942  -0.74730  -0.74396  -0.73479  -0.71935
 Alpha  occ. eigenvalues --   -0.71320  -0.70517  -0.70319  -0.69061  -0.67760
 Alpha  occ. eigenvalues --   -0.66979  -0.66772  -0.65833  -0.65595  -0.65185
 Alpha  occ. eigenvalues --   -0.64702  -0.64503  -0.64293  -0.63658  -0.63444
 Alpha  occ. eigenvalues --   -0.63395  -0.63060  -0.61072  -0.60026  -0.59440
 Alpha  occ. eigenvalues --   -0.58795  -0.58469  -0.57577  -0.57111  -0.56606
 Alpha  occ. eigenvalues --   -0.56192  -0.55760  -0.55524  -0.54970  -0.54784
 Alpha  occ. eigenvalues --   -0.54448  -0.53905  -0.53576  -0.53176  -0.52736
 Alpha  occ. eigenvalues --   -0.52410  -0.52370  -0.52024  -0.51621  -0.51328
 Alpha  occ. eigenvalues --   -0.51181  -0.50926  -0.50594  -0.50294  -0.49753
 Alpha  occ. eigenvalues --   -0.49435  -0.48782  -0.48365  -0.48267  -0.48029
 Alpha  occ. eigenvalues --   -0.47628  -0.47137  -0.46889  -0.46691  -0.46031
 Alpha  occ. eigenvalues --   -0.45828  -0.45465  -0.45453  -0.45143  -0.45002
 Alpha  occ. eigenvalues --   -0.44692  -0.44386  -0.44298  -0.43793  -0.43606
 Alpha  occ. eigenvalues --   -0.43091  -0.42792  -0.42340  -0.42125  -0.41981
 Alpha  occ. eigenvalues --   -0.41447  -0.41430  -0.40791  -0.40559  -0.40417
 Alpha  occ. eigenvalues --   -0.40184  -0.40025  -0.39655  -0.39064  -0.38524
 Alpha  occ. eigenvalues --   -0.38042  -0.37999  -0.37746  -0.36735  -0.36714
 Alpha  occ. eigenvalues --   -0.35325  -0.35263  -0.34699  -0.34042  -0.33381
 Alpha  occ. eigenvalues --   -0.32934  -0.32809  -0.31202  -0.31021  -0.30866
 Alpha  occ. eigenvalues --   -0.29732  -0.29370  -0.26589  -0.26140  -0.24521
 Alpha virt. eigenvalues --   -0.12688  -0.11457  -0.10456  -0.06815  -0.06509
 Alpha virt. eigenvalues --   -0.05475  -0.05223  -0.04862  -0.04345  -0.03864
 Alpha virt. eigenvalues --   -0.02534  -0.02367  -0.01517   0.00242   0.00305

 Mulliken charges:
               1
     1  N   -0.752571
     2  H    0.417886
     3  H    0.415638
     4  H    0.436291
     5  C   -0.118669
     6  H    0.215465
     7  C    0.653585
     8  C   -0.377483
     9  H    0.185214
    10  H    0.210264
    11  O   -0.538324
    12  C    0.579969
    13  N   -0.738058
    14  H    0.394744
    15  H    0.346934
    16  O   -0.469095
    17  N   -0.582184
    18  H    0.375534
    19  C   -0.085102
    20  H    0.196229
    21  C    0.672699
    22  C   -0.078793
    23  H    0.153028
    24  O   -0.592843
    25  C   -0.271687
    26  H    0.159196
    27  H    0.124198
    28  C   -0.453074
    29  H    0.132800
    30  H    0.171234
    31  H    0.162662
    32  C   -0.453309
    33  H    0.158815
    34  H    0.159511
    35  H    0.153324
    36  N   -0.611459
    37  H    0.368051
    38  C   -0.050216
    39  H    0.182808
    40  C    0.639177
    41  C   -0.447781
    42  H    0.161663
    43  H    0.176444
    44  H    0.170939
    45  O   -0.560152
    46  N   -0.610316
    47  H    0.349933
    48  C   -0.087664
    49  H    0.241772
    50  C    0.649828
    51  C    0.112205
    52  H    0.147874
    53  O   -0.592510
    54  C   -0.465766
    55  H    0.204654
    56  H    0.152800
    57  H    0.122481
    58  O   -0.663295
    59  H    0.412723
    60  N   -0.590182
    61  H    0.381161
    62  C   -0.086785
    63  H    0.187829
    64  C    0.619062
    65  C   -0.039448
    66  H    0.138714
    67  H    0.146339
    68  O   -0.539056
    69  O   -0.629529
    70  H    0.418724
    71  N   -0.619109
    72  H    0.383794
    73  C   -0.222071
    74  H    0.186450
    75  H    0.220796
    76  C    0.610717
    77  O   -0.625149
    78  N   -0.557647
    79  H    0.383140
    80  C   -0.080411
    81  H    0.111828
    82  C    0.604506
    83  C   -0.268255
    84  H    0.166092
    85  H    0.165281
    86  O   -0.581824
    87  C   -0.286020
    88  H    0.150177
    89  H    0.161241
    90  C   -0.284565
    91  H    0.181224
    92  H    0.148236
    93  C   -0.193073
    94  H    0.187902
    95  H    0.229641
    96  N   -0.773258
    97  H    0.392536
    98  H    0.387334
    99  H    0.468028
   100  O   -0.622591
 Sum of Mulliken charges =   1.00000

 Dipole moment (field-independent basis, Debye):
    X=            -12.9270    Y=              4.0059    Z=              6.0168  Tot=             14.8107
 Quadrupole moment (field-independent basis, Debye-Ang):
   XX=            113.7553   YY=           -278.5510   ZZ=           -151.2229
   XY=            -82.3574   XZ=           -222.4529   YZ=             63.4140

 Normal termination of Gaussian 16 at Wed Jun 29 00:44:29 2022.
