 Gaussian 16, Revision C.01,
 Gaussian 16:  ES64L-G16RevC.01  3-Jul-2019

 ----------------------------------------------------------------------
 # B3LYP/6-31G* empiricaldispersion=gd3bj guess=read geom=check nosymm
 integral(ultrafinegrid)
 ----------------------------------------------------------------------

 ------------------------------------------------------
 Candidate Structure: Conf:883 Charge calc in gas phase
 ------------------------------------------------------
 Structure from the checkpoint file:  "conf-883.chk"
 Charge =  1 Multiplicity = 1

                          Input orientation:
 ---------------------------------------------------------------------
 Center     Atomic      Atomic             Coordinates (Angstroms)
 Number     Number       Type             X           Y           Z
 ---------------------------------------------------------------------
      1          7           0       -5.134495    0.531468    6.517810
      2          1           0       -4.431406    0.210207    7.188255
      3          1           0       -6.106723    0.370987    6.902253
      4          1           0       -4.912008    1.520790    6.275698
      5          6           0       -5.047314   -0.205496    5.210562
      6          1           0       -4.696505   -1.220283    5.410125
      7          6           0       -4.046475    0.618075    4.364756
      8          6           0       -6.430073   -0.223807    4.532918
      9          1           0       -6.694724    0.800623    4.239205
     10          1           0       -6.352302   -0.808937    3.612572
     11          8           0       -3.872489    1.799516    4.684199
     12          6           0       -7.535894   -0.743755    5.451629
     13          7           0       -8.491137   -1.496972    4.887433
     14          1           0       -9.270901   -1.800536    5.458486
     15          1           0       -8.496442   -1.730255    3.904975
     16          8           0       -7.547803   -0.448023    6.655613
     17          7           0       -3.503928   -0.016020    3.334127
     18          1           0       -3.708129   -0.990922    3.109467
     19          6           0       -2.599009    0.597743    2.362933
     20          1           0       -2.994278    1.583748    2.103916
     21          6           0       -2.669572   -0.345434    1.150318
     22          6           0       -1.169783    0.756970    2.960654
     23          1           0       -1.339671    1.282279    3.910135
     24          8           0       -3.128922   -1.482375    1.280665
     25          6           0       -0.232624    1.634371    2.111503
     26          1           0        0.085696    1.091274    1.217911
     27          1           0        0.685219    1.768709    2.695637
     28          6           0       -0.524584   -0.604667    3.243273
     29          1           0       -0.294523   -1.126826    2.309399
     30          1           0        0.415561   -0.464662    3.785984
     31          1           0       -1.168996   -1.248515    3.852711
     32          6           0       -0.767788    3.019964    1.739631
     33          1           0        0.030819    3.598931    1.268722
     34          1           0       -1.605769    2.983975    1.028209
     35          1           0       -1.121866    3.567739    2.621363
     36          7           0       -2.240399    0.165154   -0.024592
     37          1           0       -1.724341    1.035250    0.017256
     38          6           0       -1.972039   -0.687554   -1.174990
     39          1           0       -2.491408   -1.629655   -0.976172
     40          6           0       -0.455421   -0.975133   -1.211164
     41          6           0       -2.513748   -0.049618   -2.459074
     42          1           0       -2.446012   -0.735131   -3.309368
     43          1           0       -3.568044    0.205879   -2.326154
     44          1           0       -1.963911    0.863336   -2.712998
     45          8           0        0.248690   -0.762963   -0.219294
     46          7           0        0.048139   -1.454379   -2.364190
     47          1           0       -0.503868   -1.521838   -3.210790
     48          6           0        1.480762   -1.666840   -2.553434
     49          1           0        1.913623   -1.993496   -1.605578
     50          6           0        2.152705   -0.340383   -2.950301
     51          6           0        1.691839   -2.720981   -3.648567
     52          1           0        2.772853   -2.783258   -3.823769
     53          8           0        2.665278   -0.173075   -4.067335
     54          6           0        1.151240   -4.088665   -3.263643
     55          1           0        1.635860   -4.452646   -2.352415
     56          1           0        1.339591   -4.800224   -4.072224
     57          1           0        0.071528   -4.048974   -3.088285
     58          8           0        1.017476   -2.295494   -4.831988
     59          1           0        1.517126   -1.508228   -5.122973
     60          7           0        2.103462    0.626685   -2.012076
     61          1           0        1.793312    0.379897   -1.073912
     62          6           0        2.857463    1.870436   -2.143769
     63          1           0        2.818715    2.182264   -3.191482
     64          6           0        4.306419    1.550959   -1.732228
     65          6           0        2.246737    2.939448   -1.237918
     66          1           0        1.226115    3.156651   -1.567458
     67          1           0        2.839795    3.860928   -1.322756
     68          8           0        4.731927    1.808708   -0.604885
     69          8           0        2.164153    2.489170    0.103339
     70          1           0        3.093125    2.300853    0.351353
     71          7           0        5.027454    0.909846   -2.690146
     72          1           0        4.484969    0.592362   -3.491313
     73          6           0        6.143421    0.075022   -2.306132
     74          1           0        6.897963    0.058574   -3.098718
     75          1           0        6.596929    0.511313   -1.411413
     76          6           0        5.665992   -1.352696   -1.984786
     77          8           0        4.479792   -1.611907   -1.772782
     78          7           0        6.641438   -2.285963   -1.968136
     79          1           0        7.621458   -2.016565   -1.939404
     80          6           0        6.386792   -3.639920   -1.501865
     81          1           0        5.891199   -3.579244   -0.520939
     82          6           0        7.769312   -4.276916   -1.255271
     83          6           0        5.471032   -4.447437   -2.442920
     84          1           0        4.892812   -3.747112   -3.048633
     85          1           0        6.078448   -5.032377   -3.141007
     86          8           0        7.846713   -5.598191   -1.154312
     87          6           0        4.501360   -5.345485   -1.654446
     88          1           0        4.978756   -5.686626   -0.726050
     89          1           0        3.656612   -4.722673   -1.339751
     90          6           0        4.017999   -6.579485   -2.432195
     91          1           0        3.992538   -6.361030   -3.509019
     92          1           0        2.990170   -6.838949   -2.152581
     93          6           0        4.894290   -7.805844   -2.162680
     94          1           0        4.784449   -8.095143   -1.111258
     95          1           0        4.555791   -8.657052   -2.770949
     96          7           0        6.326115   -7.504270   -2.371629
     97          1           0        6.896018   -8.296696   -2.076714
     98          1           0        7.092007   -6.144033   -1.542262
     99          1           0        6.514198   -7.383186   -3.367154
    100          8           0        8.747334   -3.570029   -1.109447
 ---------------------------------------------------------------------

 SCF Done:  E(RB3LYP) =  -2418.67233309     A.U. after    1 cycles

 Alpha  occ. eigenvalues --  -19.27082 -19.25523 -19.21971 -19.21864 -19.20158
 Alpha  occ. eigenvalues --  -19.19997 -19.19968 -19.19420 -19.18552 -19.17907
 Alpha  occ. eigenvalues --  -19.17634 -14.57604 -14.50448 -14.48632 -14.45635
 Alpha  occ. eigenvalues --  -14.44386 -14.42665 -14.41648 -14.41513 -14.41020
 Alpha  occ. eigenvalues --  -10.44652 -10.42646 -10.40818 -10.38836 -10.37257
 Alpha  occ. eigenvalues --  -10.36291 -10.36095 -10.36016 -10.35120 -10.34778
 Alpha  occ. eigenvalues --  -10.33355 -10.32443 -10.30001 -10.29708 -10.29684
 Alpha  occ. eigenvalues --  -10.29674 -10.29245 -10.28679 -10.28305 -10.27649
 Alpha  occ. eigenvalues --  -10.27422 -10.25051 -10.24670 -10.24649 -10.24544
 Alpha  occ. eigenvalues --  -10.24434 -10.24218 -10.23794  -1.19026  -1.17791
 Alpha  occ. eigenvalues --   -1.14053  -1.13436  -1.12343  -1.12218  -1.11264
 Alpha  occ. eigenvalues --   -1.10274  -1.09419  -1.07533  -1.07273  -1.05457
 Alpha  occ. eigenvalues --   -1.05375  -1.05373  -1.02339  -1.00728  -0.99386
 Alpha  occ. eigenvalues --   -0.98247  -0.98143  -0.96818  -0.94223  -0.89923
 Alpha  occ. eigenvalues --   -0.86847  -0.86491  -0.84458  -0.83976  -0.82784
 Alpha  occ. eigenvalues --   -0.81814  -0.80984  -0.79066  -0.78461  -0.77468
 Alpha  occ. eigenvalues --   -0.75046  -0.74888  -0.74239  -0.73100  -0.72392
 Alpha  occ. eigenvalues --   -0.71052  -0.70671  -0.69864  -0.68914  -0.68692
 Alpha  occ. eigenvalues --   -0.68284  -0.67643  -0.66961  -0.66051  -0.65759
 Alpha  occ. eigenvalues --   -0.65178  -0.64879  -0.64518  -0.64096  -0.63299
 Alpha  occ. eigenvalues --   -0.63281  -0.62418  -0.61271  -0.60831  -0.59579
 Alpha  occ. eigenvalues --   -0.58590  -0.58343  -0.57783  -0.57482  -0.57235
 Alpha  occ. eigenvalues --   -0.56940  -0.56525  -0.56158  -0.55880  -0.55175
 Alpha  occ. eigenvalues --   -0.55060  -0.54786  -0.54762  -0.53634  -0.53517
 Alpha  occ. eigenvalues --   -0.53342  -0.53163  -0.52167  -0.52082  -0.51865
 Alpha  occ. eigenvalues --   -0.51352  -0.51136  -0.51001  -0.50729  -0.50387
 Alpha  occ. eigenvalues --   -0.50000  -0.49581  -0.49412  -0.49122  -0.48879
 Alpha  occ. eigenvalues --   -0.48500  -0.48240  -0.48114  -0.47883  -0.47503
 Alpha  occ. eigenvalues --   -0.47345  -0.46910  -0.46848  -0.46289  -0.46128
 Alpha  occ. eigenvalues --   -0.45651  -0.45366  -0.44894  -0.44701  -0.44263
 Alpha  occ. eigenvalues --   -0.43934  -0.43600  -0.43267  -0.43135  -0.42988
 Alpha  occ. eigenvalues --   -0.42625  -0.41855  -0.41721  -0.41563  -0.41362
 Alpha  occ. eigenvalues --   -0.41054  -0.40507  -0.40018  -0.39946  -0.39692
 Alpha  occ. eigenvalues --   -0.39560  -0.39401  -0.39161  -0.39001  -0.37504
 Alpha  occ. eigenvalues --   -0.36088  -0.35765  -0.35536  -0.34972  -0.34784
 Alpha  occ. eigenvalues --   -0.33913  -0.33664  -0.33363  -0.33285  -0.33009
 Alpha  occ. eigenvalues --   -0.31802  -0.31564  -0.31082  -0.30933  -0.30371
 Alpha virt. eigenvalues --   -0.12734  -0.11380  -0.08997  -0.07829  -0.06957
 Alpha virt. eigenvalues --   -0.05635  -0.05093  -0.04398  -0.04145  -0.03254
 Alpha virt. eigenvalues --   -0.02703  -0.01903  -0.01273  -0.00894  -0.00374

 Mulliken charges:
               1
     1  N   -0.754918
     2  H    0.409196
     3  H    0.443737
     4  H    0.417446
     5  C   -0.123463
     6  H    0.215404
     7  C    0.654472
     8  C   -0.400184
     9  H    0.229105
    10  H    0.203974
    11  O   -0.535234
    12  C    0.646828
    13  N   -0.725877
    14  H    0.382628
    15  H    0.371201
    16  O   -0.534477
    17  N   -0.611829
    18  H    0.366485
    19  C   -0.079630
    20  H    0.190556
    21  C    0.633040
    22  C   -0.078402
    23  H    0.148535
    24  O   -0.548939
    25  C   -0.288580
    26  H    0.189747
    27  H    0.155854
    28  C   -0.473864
    29  H    0.194705
    30  H    0.161471
    31  H    0.119442
    32  C   -0.478830
    33  H    0.189770
    34  H    0.115245
    35  H    0.152310
    36  N   -0.585355
    37  H    0.355927
    38  C   -0.084863
    39  H    0.215223
    40  C    0.632387
    41  C   -0.468921
    42  H    0.169284
    43  H    0.177510
    44  H    0.166818
    45  O   -0.531601
    46  N   -0.604953
    47  H    0.352398
    48  C   -0.075475
    49  H    0.211802
    50  C    0.665182
    51  C    0.100915
    52  H    0.160811
    53  O   -0.578769
    54  C   -0.458287
    55  H    0.153353
    56  H    0.167570
    57  H    0.147091
    58  O   -0.654068
    59  H    0.419524
    60  N   -0.607263
    61  H    0.384442
    62  C   -0.102167
    63  H    0.182161
    64  C    0.631486
    65  C   -0.043243
    66  H    0.141916
    67  H    0.152229
    68  O   -0.539510
    69  O   -0.638244
    70  H    0.426768
    71  N   -0.576431
    72  H    0.371327
    73  C   -0.263120
    74  H    0.181804
    75  H    0.221927
    76  C    0.616467
    77  O   -0.544610
    78  N   -0.618048
    79  H    0.360639
    80  C   -0.034360
    81  H    0.187273
    82  C    0.581292
    83  C   -0.298462
    84  H    0.181942
    85  H    0.139501
    86  O   -0.619566
    87  C   -0.284392
    88  H    0.144052
    89  H    0.159581
    90  C   -0.273089
    91  H    0.144288
    92  H    0.148462
    93  C   -0.143482
    94  H    0.160079
    95  H    0.145181
    96  N   -0.767215
    97  H    0.338344
    98  H    0.485067
    99  H    0.326828
   100  O   -0.470286
 Sum of Mulliken charges =   1.00000

 Dipole moment (field-independent basis, Debye):
    X=            -21.0997    Y=             -7.8176    Z=             12.7104  Tot=             25.8431
 Quadrupole moment (field-independent basis, Debye-Ang):
   XX=           -140.9695   YY=           -214.5722   ZZ=           -161.0271
   XY=            -11.4913   XZ=           -131.9539   YZ=             10.4268

 Normal termination of Gaussian 16 at Wed Jun 29 00:44:03 2022.
