 Gaussian 16, Revision C.01,
 Gaussian 16:  ES64L-G16RevC.01  3-Jul-2019

 ----------------------------------------------------------------------
 # B3LYP/6-31G* empiricaldispersion=gd3bj guess=read geom=check nosymm
 integral(ultrafinegrid)
 ----------------------------------------------------------------------

 ------------------------------------------------------
 Candidate Structure: Conf:828 Charge calc in gas phase
 ------------------------------------------------------
 Structure from the checkpoint file:  "conf-828.chk"
 Charge =  1 Multiplicity = 1

                          Input orientation:
 ---------------------------------------------------------------------
 Center     Atomic      Atomic             Coordinates (Angstroms)
 Number     Number       Type             X           Y           Z
 ---------------------------------------------------------------------
      1          7           0       -1.876670    6.227301    1.845400
      2          1           0       -2.172913    7.187171    2.028775
      3          1           0       -1.128041    6.181119    1.013855
      4          1           0       -1.421594    5.813906    2.669533
      5          6           0       -3.030792    5.331574    1.479576
      6          1           0       -3.751610    5.380279    2.302043
      7          6           0       -2.399288    3.916618    1.599871
      8          6           0       -3.657167    5.930772    0.196140
      9          1           0       -4.518191    6.536816    0.501110
     10          1           0       -2.928391    6.600457   -0.266480
     11          8           0       -1.528539    3.795494    2.478016
     12          6           0       -4.186241    4.988003   -0.878381
     13          7           0       -3.842154    5.341056   -2.129094
     14          1           0       -4.184540    4.772503   -2.892558
     15          1           0       -3.086203    6.006436   -2.289063
     16          8           0       -4.911614    4.022230   -0.611552
     17          7           0       -2.830566    2.918808    0.826861
     18          1           0       -3.648562    3.079457    0.234144
     19          6           0       -2.280688    1.561596    0.956489
     20          1           0       -2.187393    1.359402    2.027720
     21          6           0       -0.857036    1.549670    0.364657
     22          6           0       -3.219795    0.502631    0.345797
     23          1           0       -4.118929    0.519943    0.978886
     24          8           0       -0.605986    1.261158   -0.812821
     25          6           0       -2.600062   -0.907133    0.454135
     26          1           0       -1.772407   -0.991719   -0.258901
     27          1           0       -3.368799   -1.618840    0.129030
     28          6           0       -3.648598    0.793001   -1.101360
     29          1           0       -2.778596    0.827806   -1.760191
     30          1           0       -4.313447   -0.006419   -1.445576
     31          1           0       -4.203335    1.731391   -1.200893
     32          6           0       -2.101152   -1.300058    1.848424
     33          1           0       -1.818617   -2.357206    1.871420
     34          1           0       -1.210002   -0.733642    2.138940
     35          1           0       -2.873293   -1.146151    2.612357
     36          7           0        0.103983    1.881314    1.253285
     37          1           0       -0.224241    2.294456    2.121539
     38          6           0        1.464289    2.223889    0.842627
     39          1           0        1.403910    2.643892   -0.167930
     40          6           0        2.371809    0.989689    0.708787
     41          6           0        2.039214    3.252597    1.807397
     42          1           0        3.077019    3.473152    1.550654
     43          1           0        1.440803    4.167958    1.768084
     44          1           0        2.041824    2.870332    2.832929
     45          8           0        3.489611    0.945505    1.240512
     46          7           0        1.880834    0.020718   -0.087257
     47          1           0        1.001989    0.207849   -0.570387
     48          6           0        2.643237   -1.163547   -0.462638
     49          1           0        3.170603   -1.521456    0.427860
     50          6           0        3.662649   -0.722467   -1.535424
     51          6           0        1.700987   -2.256693   -0.974617
     52          1           0        1.270425   -1.913361   -1.926599
     53          8           0        3.466665   -0.947472   -2.737463
     54          6           0        2.435601   -3.575101   -1.197022
     55          1           0        3.216334   -3.468417   -1.955113
     56          1           0        1.736827   -4.342852   -1.548537
     57          1           0        2.883424   -3.925200   -0.260897
     58          8           0        0.680120   -2.376084    0.015672
     59          1           0        0.084740   -3.088570   -0.263397
     60          7           0        4.734613   -0.054608   -1.021114
     61          1           0        4.612579    0.128023   -0.019110
     62          6           0        5.414655    1.064887   -1.677139
     63          1           0        6.270010    1.309174   -1.036885
     64          6           0        4.432027    2.252861   -1.694271
     65          6           0        5.994803    0.781635   -3.076931
     66          1           0        6.632981   -0.108121   -3.008868
     67          1           0        6.622369    1.629870   -3.365384
     68          8           0        3.226843    2.055228   -1.826669
     69          8           0        5.023612    0.619715   -4.094984
     70          1           0        4.443476   -0.127396   -3.778452
     71          7           0        4.926205    3.505677   -1.563972
     72          1           0        5.908968    3.638421   -1.368014
     73          6           0        4.023610    4.620502   -1.294499
     74          1           0        3.677617    4.579301   -0.255833
     75          1           0        4.589049    5.547003   -1.428345
     76          6           0        2.830516    4.684668   -2.258535
     77          8           0        3.009370    4.650707   -3.486163
     78          7           0        1.640982    4.866029   -1.671004
     79          1           0        1.575253    4.928813   -0.658393
     80          6           0        0.410343    5.317180   -2.324836
     81          1           0        0.679574    6.038534   -3.102357
     82          6           0       -0.449223    6.031853   -1.254433
     83          6           0       -0.481912    4.221161   -2.954351
     84          1           0       -0.820235    3.535344   -2.168141
     85          1           0       -1.365891    4.754668   -3.312684
     86          8           0       -1.383387    6.748776   -1.653124
     87          6           0        0.136232    3.422648   -4.115807
     88          1           0       -0.639445    3.204426   -4.860451
     89          1           0        0.880933    4.049236   -4.618515
     90          6           0        0.752635    2.103623   -3.633642
     91          1           0       -0.045803    1.390041   -3.404746
     92          1           0        1.286169    2.251859   -2.696678
     93          6           0        1.698024    1.437337   -4.622031
     94          1           0        2.034368    0.472678   -4.238574
     95          1           0        1.231132    1.285633   -5.598642
     96          7           0        2.949516    2.273029   -4.847200
     97          1           0        3.075658    2.513682   -5.831670
     98          1           0        3.801846    1.744940   -4.536437
     99          1           0        2.927652    3.171524   -4.307773
    100          8           0       -0.157779    5.761079   -0.033920
 ---------------------------------------------------------------------

 SCF Done:  E(RB3LYP) =  -2418.72643696     A.U. after    3 cycles

 Alpha  occ. eigenvalues --  -19.25036 -19.23464 -19.23438 -19.23159 -19.22702
 Alpha  occ. eigenvalues --  -19.22068 -19.21387 -19.21188 -19.20858 -19.20808
 Alpha  occ. eigenvalues --  -19.19273 -14.52466 -14.51669 -14.48430 -14.46184
 Alpha  occ. eigenvalues --  -14.45833 -14.45598 -14.44829 -14.44374 -14.44190
 Alpha  occ. eigenvalues --  -10.40430 -10.40420 -10.39805 -10.39703 -10.38880
 Alpha  occ. eigenvalues --  -10.37946 -10.37797 -10.37391 -10.36972 -10.34947
 Alpha  occ. eigenvalues --  -10.34607 -10.34288 -10.33202 -10.32405 -10.32320
 Alpha  occ. eigenvalues --  -10.32185 -10.31943 -10.31524 -10.29959 -10.27182
 Alpha  occ. eigenvalues --  -10.26979 -10.26843 -10.26790 -10.26692 -10.25425
 Alpha  occ. eigenvalues --  -10.24896 -10.23964 -10.23795  -1.16404  -1.15437
 Alpha  occ. eigenvalues --   -1.14798  -1.13859  -1.13244  -1.13139  -1.12700
 Alpha  occ. eigenvalues --   -1.12338  -1.11947  -1.10185  -1.07733  -1.06853
 Alpha  occ. eigenvalues --   -1.04755  -1.04108  -1.03022  -1.02950  -1.02067
 Alpha  occ. eigenvalues --   -1.01893  -1.00694  -0.99625  -0.89857  -0.89393
 Alpha  occ. eigenvalues --   -0.88449  -0.87859  -0.87004  -0.85761  -0.85253
 Alpha  occ. eigenvalues --   -0.82836  -0.81455  -0.79544  -0.79281  -0.79036
 Alpha  occ. eigenvalues --   -0.77858  -0.76201  -0.73553  -0.73106  -0.71196
 Alpha  occ. eigenvalues --   -0.70698  -0.69907  -0.69533  -0.69442  -0.68423
 Alpha  occ. eigenvalues --   -0.67894  -0.67475  -0.67381  -0.67040  -0.66043
 Alpha  occ. eigenvalues --   -0.65865  -0.65419  -0.65238  -0.64992  -0.64778
 Alpha  occ. eigenvalues --   -0.63395  -0.62754  -0.62652  -0.61897  -0.61337
 Alpha  occ. eigenvalues --   -0.60446  -0.60046  -0.59611  -0.59010  -0.58862
 Alpha  occ. eigenvalues --   -0.58293  -0.58102  -0.57079  -0.57026  -0.56709
 Alpha  occ. eigenvalues --   -0.56511  -0.56211  -0.55640  -0.55072  -0.54756
 Alpha  occ. eigenvalues --   -0.54414  -0.54134  -0.53818  -0.53052  -0.52494
 Alpha  occ. eigenvalues --   -0.52390  -0.52282  -0.52003  -0.51732  -0.51441
 Alpha  occ. eigenvalues --   -0.51189  -0.51030  -0.50676  -0.50581  -0.50114
 Alpha  occ. eigenvalues --   -0.49911  -0.49627  -0.49109  -0.48987  -0.48818
 Alpha  occ. eigenvalues --   -0.48632  -0.48293  -0.48228  -0.47928  -0.47478
 Alpha  occ. eigenvalues --   -0.47191  -0.47099  -0.46674  -0.46361  -0.46243
 Alpha  occ. eigenvalues --   -0.45726  -0.45669  -0.45446  -0.44877  -0.44698
 Alpha  occ. eigenvalues --   -0.44592  -0.44315  -0.43497  -0.42544  -0.42433
 Alpha  occ. eigenvalues --   -0.41970  -0.41443  -0.41024  -0.40342  -0.40082
 Alpha  occ. eigenvalues --   -0.39568  -0.39442  -0.38289  -0.38231  -0.37968
 Alpha  occ. eigenvalues --   -0.37668  -0.37421  -0.36699  -0.36512  -0.36477
 Alpha  occ. eigenvalues --   -0.36295  -0.35694  -0.35593  -0.35304  -0.35052
 Alpha  occ. eigenvalues --   -0.34797  -0.33892  -0.33280  -0.32819  -0.32673
 Alpha virt. eigenvalues --   -0.10912  -0.09695  -0.08997  -0.08961  -0.07897
 Alpha virt. eigenvalues --   -0.07696  -0.05970  -0.05180  -0.04557  -0.04143
 Alpha virt. eigenvalues --   -0.03342  -0.01629  -0.01088  -0.00203   0.00473

 Mulliken charges:
               1
     1  N   -0.773339
     2  H    0.385079
     3  H    0.455093
     4  H    0.402069
     5  C   -0.105334
     6  H    0.220582
     7  C    0.667056
     8  C   -0.415082
     9  H    0.201069
    10  H    0.224340
    11  O   -0.573304
    12  C    0.591047
    13  N   -0.744291
    14  H    0.351654
    15  H    0.404449
    16  O   -0.535361
    17  N   -0.663335
    18  H    0.423009
    19  C   -0.053009
    20  H    0.182448
    21  C    0.639877
    22  C   -0.102684
    23  H    0.143959
    24  O   -0.561718
    25  C   -0.276761
    26  H    0.155279
    27  H    0.142480
    28  C   -0.496656
    29  H    0.172828
    30  H    0.153877
    31  H    0.166432
    32  C   -0.453903
    33  H    0.152322
    34  H    0.151077
    35  H    0.145957
    36  N   -0.583942
    37  H    0.380485
    38  C   -0.087377
    39  H    0.204194
    40  C    0.663290
    41  C   -0.497769
    42  H    0.171849
    43  H    0.167360
    44  H    0.177543
    45  O   -0.571762
    46  N   -0.602954
    47  H    0.395252
    48  C   -0.069093
    49  H    0.191881
    50  C    0.660546
    51  C    0.128161
    52  H    0.140676
    53  O   -0.571600
    54  C   -0.481550
    55  H    0.173289
    56  H    0.154570
    57  H    0.166315
    58  O   -0.626571
    59  H    0.403918
    60  N   -0.589725
    61  H    0.388440
    62  C   -0.128801
    63  H    0.173998
    64  C    0.641340
    65  C   -0.032918
    66  H    0.179668
    67  H    0.164362
    68  O   -0.535711
    69  O   -0.660991
    70  H    0.450624
    71  N   -0.588478
    72  H    0.349486
    73  C   -0.231763
    74  H    0.181714
    75  H    0.202913
    76  C    0.655843
    77  O   -0.580637
    78  N   -0.604504
    79  H    0.375807
    80  C   -0.035224
    81  H    0.183039
    82  C    0.615834
    83  C   -0.289706
    84  H    0.170110
    85  H    0.148199
    86  O   -0.564050
    87  C   -0.277835
    88  H    0.142628
    89  H    0.146522
    90  C   -0.328536
    91  H    0.179583
    92  H    0.223370
    93  C   -0.181651
    94  H    0.210342
    95  H    0.178406
    96  N   -0.829869
    97  H    0.383699
    98  H    0.434737
    99  H    0.462059
   100  O   -0.646243
 Sum of Mulliken charges =   1.00000

 Dipole moment (field-independent basis, Debye):
    X=              6.4815    Y=             15.0904    Z=             -5.6028  Tot=             17.3528
 Quadrupole moment (field-independent basis, Debye-Ang):
   XX=           -203.6834   YY=           -183.4794   ZZ=           -229.5527
   XY=              2.7234   XZ=            -35.7192   YZ=             11.0118

 Normal termination of Gaussian 16 at Wed Jun 29 00:45:48 2022.
