 Gaussian 16, Revision C.01,
 Gaussian 16:  ES64L-G16RevC.01  3-Jul-2019

 ----------------------------------------------------------------------
 # B3LYP/6-31G* empiricaldispersion=gd3bj guess=read geom=check nosymm
 integral(ultrafinegrid)
 ----------------------------------------------------------------------

 ------------------------------------------------------
 Candidate Structure: Conf:771 Charge calc in gas phase
 ------------------------------------------------------
 Structure from the checkpoint file:  "conf-771.chk"
 Charge =  1 Multiplicity = 1

                          Input orientation:
 ---------------------------------------------------------------------
 Center     Atomic      Atomic             Coordinates (Angstroms)
 Number     Number       Type             X           Y           Z
 ---------------------------------------------------------------------
      1          7           0       -6.558905   -0.960844    3.756713
      2          1           0       -6.742928   -1.103330    4.755023
      3          1           0       -7.102135   -1.644311    3.221485
      4          1           0       -6.831938    0.035697    3.506631
      5          6           0       -5.081686   -0.962183    3.419322
      6          1           0       -4.548283   -1.519660    4.190634
      7          6           0       -4.738701    0.552967    3.444906
      8          6           0       -4.877269   -1.576952    2.021907
      9          1           0       -5.103334   -2.649916    2.057229
     10          1           0       -5.544383   -1.093754    1.303008
     11          8           0       -5.685192    1.338580    3.298432
     12          6           0       -3.442492   -1.336675    1.517182
     13          7           0       -2.467793   -1.951862    2.223712
     14          1           0       -1.482870   -1.797110    1.921115
     15          1           0       -2.673422   -2.772348    2.778727
     16          8           0       -3.243374   -0.544137    0.602641
     17          7           0       -3.460454    0.877004    3.614083
     18          1           0       -2.758939    0.139158    3.610114
     19          6           0       -2.929885    2.230438    3.357343
     20          1           0       -3.794224    2.875847    3.185091
     21          6           0       -2.083376    2.029871    2.088435
     22          6           0       -2.094994    2.761523    4.533780
     23          1           0       -1.275789    2.046773    4.691468
     24          8           0       -1.108880    1.278302    2.161156
     25          6           0       -2.945205    2.840261    5.812761
     26          1           0       -3.433833    1.870329    5.974982
     27          1           0       -3.752498    3.570835    5.661366
     28          6           0       -1.485852    4.114602    4.142487
     29          1           0       -2.270034    4.860097    3.959649
     30          1           0       -0.845433    4.495901    4.940918
     31          1           0       -0.869263    4.035417    3.241610
     32          6           0       -2.144098    3.205514    7.065281
     33          1           0       -2.780447    3.168230    7.955060
     34          1           0       -1.312056    2.508281    7.218907
     35          1           0       -1.727364    4.215129    7.003883
     36          7           0       -2.532485    2.644343    0.980449
     37          1           0       -3.354971    3.224640    1.083364
     38          6           0       -2.162774    2.351731   -0.415569
     39          1           0       -2.824642    1.549023   -0.759918
     40          6           0       -0.707903    1.865594   -0.526409
     41          6           0       -2.357487    3.604298   -1.264644
     42          1           0       -2.190622    3.367805   -2.319105
     43          1           0       -3.378145    3.991122   -1.164490
     44          1           0       -1.640270    4.372007   -0.967157
     45          8           0        0.230275    2.653267   -0.602320
     46          7           0       -0.561884    0.519156   -0.612052
     47          1           0       -1.355533   -0.061464   -0.354274
     48          6           0        0.781332   -0.049626   -0.511065
     49          1           0        1.397164    0.690055    0.016270
     50          6           0        1.363620   -0.236961   -1.921438
     51          6           0        0.779675   -1.355250    0.288331
     52          1           0        0.247464   -2.121760   -0.284264
     53          8           0        1.479901   -1.350729   -2.443205
     54          6           0        2.191237   -1.836076    0.598128
     55          1           0        2.724444   -2.079836   -0.323541
     56          1           0        2.144545   -2.733764    1.220637
     57          1           0        2.748404   -1.068327    1.146799
     58          8           0        0.048703   -1.172165    1.518366
     59          1           0       -0.058433   -0.222181    1.720485
     60          7           0        1.710155    0.913792   -2.531758
     61          1           0        1.601271    1.802026   -2.043828
     62          6           0        2.179192    0.948006   -3.913062
     63          1           0        1.634742    0.179610   -4.474340
     64          6           0        3.685972    0.617878   -3.981471
     65          6           0        1.904368    2.332724   -4.500014
     66          1           0        0.828077    2.527784   -4.483338
     67          1           0        2.235925    2.345500   -5.548912
     68          8           0        4.522984    1.477372   -4.315298
     69          8           0        2.521376    3.344407   -3.730443
     70          1           0        3.475518    3.145406   -3.788419
     71          7           0        3.994317   -0.635713   -3.623807
     72          1           0        3.218721   -1.258529   -3.405358
     73          6           0        5.343666   -1.152417   -3.676412
     74          1           0        6.025082   -0.397668   -3.270268
     75          1           0        5.412382   -2.039017   -3.041270
     76          6           0        5.792054   -1.478111   -5.110476
     77          8           0        5.145788   -1.007289   -6.088873
     78          7           0        6.892161   -2.190461   -5.196260
     79          1           0        7.242270   -2.859678   -4.450059
     80          6           0        7.529097   -2.685400   -6.413697
     81          1           0        6.778099   -2.825648   -7.195341
     82          6           0        8.139465   -4.087361   -5.987301
     83          6           0        8.672999   -1.774953   -6.889495
     84          1           0        9.487297   -1.839702   -6.157604
     85          1           0        9.056634   -2.208434   -7.818783
     86          8           0        8.048322   -4.306098   -4.739461
     87          6           0        8.307874   -0.295274   -7.065970
     88          1           0        7.929662    0.061044   -6.096204
     89          1           0        9.214799    0.290350   -7.266171
     90          6           0        7.277340   -0.032325   -8.174093
     91          1           0        6.511590   -0.812568   -8.162049
     92          1           0        7.762853   -0.071997   -9.155815
     93          6           0        6.573346    1.318828   -8.058382
     94          1           0        7.269120    2.162066   -8.096998
     95          1           0        5.831113    1.445659   -8.850277
     96          7           0        5.823642    1.403161   -6.751587
     97          1           0        5.069774    2.091634   -6.746912
     98          1           0        6.426665    1.643515   -5.962478
     99          1           0        5.412160    0.437183   -6.477079
    100          8           0        8.648650   -4.742581   -6.901072
 ---------------------------------------------------------------------

 SCF Done:  E(RB3LYP) =  -2418.60398189     A.U. after    2 cycles

 Alpha  occ. eigenvalues --  -19.29670 -19.26231 -19.24775 -19.24212 -19.21272
 Alpha  occ. eigenvalues --  -19.20844 -19.20494 -19.20310 -19.17242 -19.06900
 Alpha  occ. eigenvalues --  -19.05396 -14.63358 -14.52551 -14.50296 -14.48749
 Alpha  occ. eigenvalues --  -14.48521 -14.45236 -14.44230 -14.43328 -14.38440
 Alpha  occ. eigenvalues --  -10.46490 -10.44532 -10.44024 -10.41417 -10.38356
 Alpha  occ. eigenvalues --  -10.37447 -10.37423 -10.36829 -10.36165 -10.34026
 Alpha  occ. eigenvalues --  -10.33778 -10.33179 -10.32175 -10.31781 -10.31096
 Alpha  occ. eigenvalues --  -10.30906 -10.30261 -10.29201 -10.28395 -10.27667
 Alpha  occ. eigenvalues --  -10.27297 -10.26394 -10.25142 -10.24716 -10.24493
 Alpha  occ. eigenvalues --  -10.23348 -10.22201 -10.20625  -1.22325  -1.17838
 Alpha  occ. eigenvalues --   -1.17152  -1.16211  -1.13455  -1.12426  -1.11807
 Alpha  occ. eigenvalues --   -1.11433  -1.09063  -1.08643  -1.08142  -1.05326
 Alpha  occ. eigenvalues --   -1.04914  -1.04183  -1.01858  -1.00794  -1.00015
 Alpha  occ. eigenvalues --   -0.99496  -0.96730  -0.95311  -0.92799  -0.91091
 Alpha  occ. eigenvalues --   -0.88928  -0.86836  -0.86300  -0.85832  -0.84332
 Alpha  occ. eigenvalues --   -0.84050  -0.80991  -0.80966  -0.79453  -0.78838
 Alpha  occ. eigenvalues --   -0.77176  -0.77120  -0.75668  -0.74607  -0.73888
 Alpha  occ. eigenvalues --   -0.73532  -0.72474  -0.71906  -0.71582  -0.70298
 Alpha  occ. eigenvalues --   -0.69646  -0.68678  -0.67541  -0.67199  -0.67002
 Alpha  occ. eigenvalues --   -0.66749  -0.65888  -0.65763  -0.64774  -0.63807
 Alpha  occ. eigenvalues --   -0.63700  -0.63092  -0.62930  -0.62272  -0.61988
 Alpha  occ. eigenvalues --   -0.61711  -0.60892  -0.59672  -0.59529  -0.59298
 Alpha  occ. eigenvalues --   -0.58049  -0.57798  -0.57552  -0.57151  -0.56989
 Alpha  occ. eigenvalues --   -0.56617  -0.56249  -0.55437  -0.55321  -0.54861
 Alpha  occ. eigenvalues --   -0.54658  -0.53954  -0.53766  -0.53215  -0.52643
 Alpha  occ. eigenvalues --   -0.52400  -0.51892  -0.51709  -0.51169  -0.50855
 Alpha  occ. eigenvalues --   -0.50579  -0.50469  -0.50108  -0.49977  -0.49785
 Alpha  occ. eigenvalues --   -0.49270  -0.49050  -0.48829  -0.48543  -0.48391
 Alpha  occ. eigenvalues --   -0.48110  -0.47430  -0.47375  -0.46562  -0.46507
 Alpha  occ. eigenvalues --   -0.46280  -0.45954  -0.45863  -0.45728  -0.45466
 Alpha  occ. eigenvalues --   -0.45036  -0.44491  -0.44459  -0.44168  -0.43415
 Alpha  occ. eigenvalues --   -0.42678  -0.42639  -0.42349  -0.41985  -0.41822
 Alpha  occ. eigenvalues --   -0.41166  -0.41073  -0.40616  -0.40060  -0.39874
 Alpha  occ. eigenvalues --   -0.38454  -0.38005  -0.37667  -0.37560  -0.37183
 Alpha  occ. eigenvalues --   -0.36743  -0.36451  -0.36181  -0.35702  -0.34969
 Alpha  occ. eigenvalues --   -0.34244  -0.34071  -0.33843  -0.33106  -0.32262
 Alpha  occ. eigenvalues --   -0.31221  -0.29923  -0.22024  -0.21720  -0.19574
 Alpha virt. eigenvalues --   -0.15734  -0.13902  -0.13311  -0.10185  -0.08679
 Alpha virt. eigenvalues --   -0.08368  -0.07275  -0.06835  -0.05633  -0.04983
 Alpha virt. eigenvalues --   -0.04547  -0.03777  -0.03333  -0.03200  -0.02295

 Mulliken charges:
               1
     1  N   -0.751346
     2  H    0.423920
     3  H    0.420790
     4  H    0.437980
     5  C   -0.119503
     6  H    0.219074
     7  C    0.648607
     8  C   -0.385251
     9  H    0.198380
    10  H    0.213741
    11  O   -0.534281
    12  C    0.579080
    13  N   -0.779055
    14  H    0.433352
    15  H    0.341941
    16  O   -0.489647
    17  N   -0.585059
    18  H    0.373326
    19  C   -0.078521
    20  H    0.182414
    21  C    0.667506
    22  C   -0.079305
    23  H    0.151687
    24  O   -0.569197
    25  C   -0.256442
    26  H    0.116468
    27  H    0.143939
    28  C   -0.480289
    29  H    0.149789
    30  H    0.181108
    31  H    0.178016
    32  C   -0.452234
    33  H    0.160139
    34  H    0.152693
    35  H    0.166301
    36  N   -0.605167
    37  H    0.344992
    38  C   -0.028705
    39  H    0.187095
    40  C    0.617297
    41  C   -0.471570
    42  H    0.178762
    43  H    0.146599
    44  H    0.203738
    45  O   -0.518744
    46  N   -0.619443
    47  H    0.369468
    48  C   -0.116594
    49  H    0.189694
    50  C    0.655794
    51  C    0.145016
    52  H    0.159924
    53  O   -0.554152
    54  C   -0.458057
    55  H    0.178364
    56  H    0.165923
    57  H    0.151943
    58  O   -0.703470
    59  H    0.458419
    60  N   -0.610588
    61  H    0.386656
    62  C   -0.090594
    63  H    0.189623
    64  C    0.644285
    65  C   -0.047219
    66  H    0.155105
    67  H    0.129193
    68  O   -0.604530
    69  O   -0.627199
    70  H    0.413701
    71  N   -0.576908
    72  H    0.386877
    73  C   -0.248756
    74  H    0.197016
    75  H    0.195674
    76  C    0.595774
    77  O   -0.613543
    78  N   -0.558121
    79  H    0.369420
    80  C   -0.094148
    81  H    0.154508
    82  C    0.597298
    83  C   -0.256683
    84  H    0.151208
    85  H    0.173255
    86  O   -0.618909
    87  C   -0.277837
    88  H    0.103809
    89  H    0.143787
    90  C   -0.285750
    91  H    0.194083
    92  H    0.168142
    93  C   -0.176306
    94  H    0.184286
    95  H    0.187230
    96  N   -0.766978
    97  H    0.385822
    98  H    0.395260
    99  H    0.462876
   100  O   -0.568069
 Sum of Mulliken charges =   1.00000

 Dipole moment (field-independent basis, Debye):
    X=            -32.9702    Y=             10.9874    Z=             17.0143  Tot=             38.6942
 Quadrupole moment (field-independent basis, Debye-Ang):
   XX=           -213.0727   YY=           -321.0125   ZZ=           -184.7602
   XY=            148.6867   XZ=            -64.3738   YZ=           -113.1053

 Normal termination of Gaussian 16 at Wed Jun 29 00:44:28 2022.
