 Gaussian 16, Revision C.01,
 Gaussian 16:  ES64L-G16RevC.01  3-Jul-2019

 ----------------------------------------------------------------------
 # B3LYP/6-31G* empiricaldispersion=gd3bj guess=read geom=check nosymm
 integral(ultrafinegrid)
 ----------------------------------------------------------------------

 ------------------------------------------------------
 Candidate Structure: Conf:420 Charge calc in gas phase
 ------------------------------------------------------
 Structure from the checkpoint file:  "conf-420.chk"
 Charge =  1 Multiplicity = 1

                          Input orientation:
 ---------------------------------------------------------------------
 Center     Atomic      Atomic             Coordinates (Angstroms)
 Number     Number       Type             X           Y           Z
 ---------------------------------------------------------------------
      1          7           0       -2.304474    2.121375    6.302386
      2          1           0       -2.409437    1.557166    7.149466
      3          1           0       -2.949373    2.958279    6.336186
      4          1           0       -1.293733    2.347385    6.193774
      5          6           0       -2.655822    1.354511    5.059791
      6          1           0       -3.448145    0.643058    5.302486
      7          6           0       -1.346008    0.685652    4.595676
      8          6           0       -3.100394    2.336647    3.958963
      9          1           0       -2.249652    2.985822    3.710397
     10          1           0       -3.322504    1.768414    3.049882
     11          8           0       -0.287307    1.175014    4.988063
     12          6           0       -4.247516    3.230842    4.412308
     13          7           0       -5.195781    3.505644    3.504478
     14          1           0       -5.942858    4.142095    3.753941
     15          1           0       -5.173560    3.127829    2.567958
     16          8           0       -4.270944    3.692952    5.564001
     17          7           0       -1.514983   -0.321551    3.729599
     18          1           0       -2.467494   -0.466126    3.401997
     19          6           0       -0.569252   -0.604711    2.636170
     20          1           0        0.419446   -0.237346    2.918925
     21          6           0       -1.124078    0.212900    1.452087
     22          6           0       -0.520855   -2.128003    2.380589
     23          1           0       -1.563513   -2.483053    2.393391
     24          8           0       -2.353309    0.333316    1.303367
     25          6           0        0.236032   -2.801689    3.539989
     26          1           0       -0.113558   -2.374722    4.489117
     27          1           0        1.299763   -2.541656    3.455638
     28          6           0        0.081271   -2.460900    1.011564
     29          1           0        1.062141   -1.996189    0.870237
     30          1           0        0.196009   -3.544557    0.908011
     31          1           0       -0.567425   -2.131259    0.195509
     32          6           0        0.071774   -4.322268    3.590940
     33          1           0        0.594932   -4.740497    4.457314
     34          1           0       -0.985720   -4.602819    3.672258
     35          1           0        0.477226   -4.808270    2.697871
     36          7           0       -0.189341    0.775909    0.681760
     37          1           0        0.811661    0.672568    0.963418
     38          6           0       -0.502823    1.595621   -0.484827
     39          1           0       -1.553048    1.407935   -0.729121
     40          6           0        0.399143    1.085071   -1.620170
     41          6           0       -0.278106    3.077474   -0.197952
     42          1           0       -0.470149    3.681487   -1.090201
     43          1           0       -0.952836    3.401607    0.600516
     44          1           0        0.753580    3.247705    0.118682
     45          8           0        1.446749    1.677614   -1.905515
     46          7           0       -0.039246   -0.044659   -2.229350
     47          1           0       -0.926735   -0.397833   -1.883186
     48          6           0        0.795904   -1.177243   -2.669333
     49          1           0        1.415819   -1.465737   -1.811595
     50          6           0        1.787492   -0.934559   -3.809555
     51          6           0       -0.140023   -2.365198   -3.040502
     52          1           0       -0.446449   -2.257778   -4.090773
     53          8           0        2.378111   -1.901166   -4.315820
     54          6           0        0.526748   -3.717124   -2.819786
     55          1           0        1.409763   -3.816451   -3.451087
     56          1           0       -0.172480   -4.525735   -3.067358
     57          1           0        0.819175   -3.819352   -1.769573
     58          8           0       -1.298438   -2.237973   -2.202141
     59          1           0       -1.871707   -3.001796   -2.363875
     60          7           0        2.039743    0.336609   -4.190691
     61          1           0        1.797591    1.073063   -3.516701
     62          6           0        3.049984    0.633600   -5.199628
     63          1           0        3.020568   -0.159335   -5.952545
     64          6           0        4.450692    0.640514   -4.561644
     65          6           0        2.738076    1.982769   -5.860761
     66          1           0        2.678300    2.760965   -5.083059
     67          1           0        1.759116    1.913580   -6.341359
     68          8           0        5.161945    1.668086   -4.564637
     69          8           0        3.678842    2.304772   -6.859967
     70          1           0        4.516089    2.445829   -6.386898
     71          7           0        4.824537   -0.502029   -3.965063
     72          1           0        4.178377   -1.291895   -4.037874
     73          6           0        6.003674   -0.566070   -3.122208
     74          1           0        6.170232   -1.610535   -2.843913
     75          1           0        6.887755   -0.225589   -3.667418
     76          6           0        5.900823    0.279120   -1.836980
     77          8           0        6.934227    0.813333   -1.381039
     78          7           0        4.686563    0.388140   -1.309298
     79          1           0        3.939815   -0.235262   -1.628787
     80          6           0        4.333863    0.917811    0.012931
     81          1           0        5.139727    0.662012    0.710972
     82          6           0        3.027884    0.163847    0.422816
     83          6           0        4.083807    2.435108    0.066672
     84          1           0        3.173901    2.658144   -0.501389
     85          1           0        3.857226    2.650086    1.113557
     86          8           0        2.431740    0.607086    1.439199
     87          6           0        5.245623    3.311730   -0.434980
     88          1           0        5.317927    4.221990    0.172650
     89          1           0        6.188502    2.772685   -0.300250
     90          6           0        5.059180    3.727879   -1.906068
     91          1           0        4.365133    4.574498   -1.958717
     92          1           0        4.586480    2.924488   -2.479867
     93          6           0        6.347879    4.138600   -2.614981
     94          1           0        6.149827    4.720490   -3.518403
     95          1           0        7.009611    4.715839   -1.963494
     96          7           0        7.106733    2.913786   -3.061787
     97          1           0        8.009305    3.147083   -3.481368
     98          1           0        6.521007    2.391142   -3.753622
     99          1           0        7.251234    2.216578   -2.285159
    100          8           0        2.666065   -0.775179   -0.331826
 ---------------------------------------------------------------------

 SCF Done:  E(RB3LYP) =  -2418.68335756     A.U. after    2 cycles

 Alpha  occ. eigenvalues --  -19.25541 -19.24281 -19.23219 -19.22885 -19.20387
 Alpha  occ. eigenvalues --  -19.20302 -19.20191 -19.19622 -19.19147 -19.14986
 Alpha  occ. eigenvalues --  -19.14565 -14.56523 -14.52198 -14.48970 -14.46659
 Alpha  occ. eigenvalues --  -14.45488 -14.43138 -14.42982 -14.42966 -14.42028
 Alpha  occ. eigenvalues --  -10.43006 -10.41069 -10.39183 -10.38899 -10.37252
 Alpha  occ. eigenvalues --  -10.36794 -10.36772 -10.35848 -10.33823 -10.33727
 Alpha  occ. eigenvalues --  -10.32773 -10.31933 -10.31694 -10.31009 -10.30563
 Alpha  occ. eigenvalues --  -10.30501 -10.30213 -10.30206 -10.28008 -10.27140
 Alpha  occ. eigenvalues --  -10.25858 -10.25066 -10.24938 -10.23879 -10.23784
 Alpha  occ. eigenvalues --  -10.23485 -10.22919 -10.21743  -1.17455  -1.16365
 Alpha  occ. eigenvalues --   -1.14291  -1.12166  -1.11619  -1.11299  -1.11169
 Alpha  occ. eigenvalues --   -1.10540  -1.10169  -1.08306  -1.08089  -1.07458
 Alpha  occ. eigenvalues --   -1.03943  -1.03706  -1.02456  -1.00502  -1.00140
 Alpha  occ. eigenvalues --   -0.99904  -0.98720  -0.98402  -0.92505  -0.88094
 Alpha  occ. eigenvalues --   -0.88019  -0.86127  -0.84647  -0.83705  -0.83117
 Alpha  occ. eigenvalues --   -0.82311  -0.80948  -0.79420  -0.77396  -0.77098
 Alpha  occ. eigenvalues --   -0.76138  -0.73448  -0.72619  -0.72369  -0.71860
 Alpha  occ. eigenvalues --   -0.71193  -0.69806  -0.69621  -0.69307  -0.68806
 Alpha  occ. eigenvalues --   -0.67924  -0.67673  -0.66781  -0.66276  -0.66064
 Alpha  occ. eigenvalues --   -0.65244  -0.64852  -0.64682  -0.64195  -0.64030
 Alpha  occ. eigenvalues --   -0.62812  -0.62337  -0.61664  -0.60962  -0.60745
 Alpha  occ. eigenvalues --   -0.59349  -0.58881  -0.58485  -0.57970  -0.57107
 Alpha  occ. eigenvalues --   -0.56969  -0.56908  -0.56265  -0.55741  -0.55380
 Alpha  occ. eigenvalues --   -0.55066  -0.54589  -0.54429  -0.53856  -0.53606
 Alpha  occ. eigenvalues --   -0.53303  -0.53067  -0.52839  -0.52610  -0.51948
 Alpha  occ. eigenvalues --   -0.51649  -0.51415  -0.51194  -0.50508  -0.50169
 Alpha  occ. eigenvalues --   -0.49757  -0.49541  -0.49303  -0.49195  -0.48801
 Alpha  occ. eigenvalues --   -0.48598  -0.48482  -0.48102  -0.47930  -0.47733
 Alpha  occ. eigenvalues --   -0.47301  -0.47027  -0.46472  -0.46122  -0.45635
 Alpha  occ. eigenvalues --   -0.45500  -0.45153  -0.44919  -0.44665  -0.44352
 Alpha  occ. eigenvalues --   -0.44050  -0.43578  -0.43480  -0.43210  -0.43060
 Alpha  occ. eigenvalues --   -0.42633  -0.41915  -0.41502  -0.40680  -0.40535
 Alpha  occ. eigenvalues --   -0.40492  -0.40327  -0.40227  -0.39839  -0.39589
 Alpha  occ. eigenvalues --   -0.39311  -0.38825  -0.38168  -0.38066  -0.37615
 Alpha  occ. eigenvalues --   -0.36871  -0.36581  -0.35290  -0.34976  -0.34355
 Alpha  occ. eigenvalues --   -0.33948  -0.33583  -0.33271  -0.32999  -0.32550
 Alpha  occ. eigenvalues --   -0.32001  -0.31804  -0.30339  -0.29530  -0.28783
 Alpha virt. eigenvalues --   -0.11368  -0.10108  -0.08970  -0.07646  -0.07365
 Alpha virt. eigenvalues --   -0.07023  -0.05419  -0.04447  -0.04096  -0.03307
 Alpha virt. eigenvalues --   -0.02572  -0.01039  -0.00279  -0.00231   0.00687

 Mulliken charges:
               1
     1  N   -0.751658
     2  H    0.407211
     3  H    0.440103
     4  H    0.414330
     5  C   -0.133762
     6  H    0.211546
     7  C    0.638272
     8  C   -0.421724
     9  H    0.222835
    10  H    0.234197
    11  O   -0.510312
    12  C    0.645296
    13  N   -0.727861
    14  H    0.377153
    15  H    0.374759
    16  O   -0.540839
    17  N   -0.567808
    18  H    0.345334
    19  C   -0.121836
    20  H    0.222417
    21  C    0.615005
    22  C   -0.062421
    23  H    0.116839
    24  O   -0.593796
    25  C   -0.257390
    26  H    0.129624
    27  H    0.156091
    28  C   -0.521861
    29  H    0.208137
    30  H    0.143723
    31  H    0.161659
    32  C   -0.451011
    33  H    0.152789
    34  H    0.139111
    35  H    0.155843
    36  N   -0.632052
    37  H    0.444025
    38  C   -0.070403
    39  H    0.176643
    40  C    0.644264
    41  C   -0.437717
    42  H    0.157439
    43  H    0.132819
    44  H    0.183589
    45  O   -0.557085
    46  N   -0.647332
    47  H    0.384537
    48  C   -0.082069
    49  H    0.262063
    50  C    0.609861
    51  C    0.147432
    52  H    0.143903
    53  O   -0.557513
    54  C   -0.488746
    55  H    0.200435
    56  H    0.138278
    57  H    0.171976
    58  O   -0.651168
    59  H    0.411523
    60  N   -0.623154
    61  H    0.394795
    62  C   -0.097160
    63  H    0.209716
    64  C    0.651658
    65  C   -0.035446
    66  H    0.131172
    67  H    0.169004
    68  O   -0.602202
    69  O   -0.619842
    70  H    0.406468
    71  N   -0.596386
    72  H    0.398523
    73  C   -0.229747
    74  H    0.209007
    75  H    0.178748
    76  C    0.592533
    77  O   -0.586125
    78  N   -0.567035
    79  H    0.361703
    80  C   -0.059856
    81  H    0.175849
    82  C    0.626065
    83  C   -0.294280
    84  H    0.178074
    85  H    0.169757
    86  O   -0.610193
    87  C   -0.289169
    88  H    0.143000
    89  H    0.162779
    90  C   -0.301238
    91  H    0.168557
    92  H    0.183154
    93  C   -0.183016
    94  H    0.190861
    95  H    0.194312
    96  N   -0.799112
    97  H    0.386910
    98  H    0.433229
    99  H    0.441462
   100  O   -0.598074
 Sum of Mulliken charges =   1.00000

 Dipole moment (field-independent basis, Debye):
    X=             -0.0654    Y=             10.4984    Z=              7.2787  Tot=             12.7749
 Quadrupole moment (field-independent basis, Debye-Ang):
   XX=           -134.2236   YY=           -227.3450   ZZ=           -183.6812
   XY=             21.5064   XZ=            -97.4031   YZ=             16.0830

 Normal termination of Gaussian 16 at Wed Jun 29 00:45:24 2022.
