 Gaussian 16, Revision C.01,
 Gaussian 16:  ES64L-G16RevC.01  3-Jul-2019

 ----------------------------------------------------------------------
 # B3LYP/6-31G* empiricaldispersion=gd3bj guess=read geom=check nosymm
 integral(ultrafinegrid)
 ----------------------------------------------------------------------

 ------------------------------------------------------
 Candidate Structure: Conf:137 Charge calc in gas phase
 ------------------------------------------------------
 Structure from the checkpoint file:  "conf-137.chk"
 Charge =  1 Multiplicity = 1

                          Input orientation:
 ---------------------------------------------------------------------
 Center     Atomic      Atomic             Coordinates (Angstroms)
 Number     Number       Type             X           Y           Z
 ---------------------------------------------------------------------
      1          7           0      -11.184934    3.639768    2.946858
      2          1           0      -11.852899    3.414759    2.207048
      3          1           0      -11.119555    2.835002    3.654884
      4          1           0      -11.488687    4.497937    3.413867
      5          6           0       -9.749933    3.714428    2.468672
      6          1           0       -9.748326    3.490947    1.398856
      7          6           0       -9.079366    2.558238    3.257905
      8          6           0       -9.124959    5.099100    2.726339
      9          1           0       -8.090802    5.012506    2.370610
     10          8           0       -9.786317    1.929348    4.066219
     11          6           0       -9.817251    6.186207    1.893847
     12          1           0      -10.854903    6.354695    2.212643
     13          1           0       -9.294561    7.139301    2.012153
     14          1           0       -9.825335    5.937638    0.827154
     15          6           0       -9.081056    5.450168    4.220007
     16          1           0      -10.083102    5.585032    4.650324
     17          1           0       -8.560917    4.686986    4.806335
     18          1           0       -8.554869    6.398010    4.360364
     19          7           0       -7.800493    2.349289    3.012238
     20          1           0       -7.256272    2.917068    2.357802
     21          6           0       -6.966700    1.338930    3.661259
     22          1           0       -7.200346    1.331932    4.729293
     23          6           0       -5.536954    1.839406    3.407714
     24          6           0       -7.224815   -0.073494    3.058159
     25          1           0       -8.303757   -0.233362    3.190008
     26          8           0       -5.326047    2.658031    2.505419
     27          6           0       -6.492517   -1.198038    3.813402
     28          1           0       -5.415607   -1.115184    3.627038
     29          1           0       -6.799085   -2.140276    3.343491
     30          6           0       -6.881449   -0.122067    1.563863
     31          1           0       -5.802493   -0.035997    1.406788
     32          1           0       -7.378815    0.675931    1.001279
     33          1           0       -7.207100   -1.077597    1.140432
     34          6           0       -6.794342   -1.282789    5.313876
     35          1           0       -6.359574   -2.191322    5.742927
     36          1           0       -6.389073   -0.440129    5.888595
     37          1           0       -7.874568   -1.311398    5.499613
     38          7           0       -4.574406    1.320105    4.181101
     39          1           0       -4.818906    0.675223    4.920640
     40          6           0       -3.164103    1.482679    3.861046
     41          1           0       -2.895374    2.538887    3.970690
     42          6           0       -2.928157    1.008680    2.413207
     43          6           0       -2.314448    0.610266    4.813032
     44          1           0       -1.264278    0.878940    4.657456
     45          1           0       -2.432969   -0.433264    4.502798
     46          8           0       -3.446699   -0.034609    2.011961
     47          6           0       -2.711841    0.770622    6.260748
     48          6           0       -2.387742    1.931503    6.974252
     49          1           0       -1.788759    2.704181    6.498082
     50          6           0       -3.475368   -0.218220    6.894057
     51          1           0       -3.710426   -1.135859    6.358841
     52          6           0       -2.818870    2.099891    8.288546
     53          1           0       -2.551501    3.001140    8.832583
     54          6           0       -3.913754   -0.050094    8.209757
     55          1           0       -4.498271   -0.830670    8.688137
     56          6           0       -3.587326    1.111152    8.908774
     57          1           0       -3.919601    1.242809    9.934179
     58          7           0       -2.106801    1.786291    1.692214
     59          1           0       -1.620830    2.575621    2.109660
     60          6           0       -1.630268    1.461506    0.359785
     61          1           0       -1.667759    0.375463    0.238252
     62          6           0       -0.178927    1.967479    0.303768
     63          6           0       -2.460537    2.157867   -0.739839
     64          1           0       -1.992652    1.945498   -1.711292
     65          1           0       -2.369458    3.239931   -0.578921
     66          8           0        0.201996    2.847916    1.079109
     67          6           0       -3.946495    1.767037   -0.793796
     68          1           0       -4.372471    1.919044    0.205137
     69          6           0       -4.686082    2.695190   -1.766078
     70          1           0       -4.292371    2.595290   -2.785652
     71          1           0       -4.585494    3.746391   -1.470870
     72          1           0       -5.755135    2.452459   -1.801043
     73          6           0       -4.141134    0.298210   -1.188212
     74          1           0       -3.680953    0.090501   -2.163489
     75          1           0       -5.208096    0.058758   -1.270184
     76          1           0       -3.712766   -0.374716   -0.441194
     77          7           0        0.588760    1.410714   -0.645975
     78          1           0        0.221745    0.734178   -1.309549
     79          6           0        1.944382    1.847261   -0.934845
     80          1           0        1.940014    2.935750   -1.075994
     81          6           0        2.304804    1.193079   -2.277789
     82          6           0        2.956333    1.503309    0.202096
     83          1           0        3.723375    0.822481   -0.179435
     84          1           0        2.402839    0.964246    0.976371
     85          8           0        1.537640    0.401961   -2.840356
     86          6           0        3.613668    2.745954    0.812073
     87          1           0        2.847926    3.438765    1.170888
     88          1           0        4.200717    2.437794    1.688868
     89          6           0        4.580185    3.509102   -0.114988
     90          8           0        4.736494    4.715799    0.016118
     91          8           0        5.208596    2.753592   -0.986007
     92          7           0        3.492011    1.580356   -2.789347
     93          1           0        4.166781    2.053289   -2.150587
     94          6           0        4.004855    0.921210   -3.963425
     95          1           0        3.156150    0.724118   -4.625629
     96          6           0        4.625174   -0.445882   -3.596193
     97          6           0        5.014511    1.863942   -4.671397
     98          1           0        4.448717    2.678041   -5.137446
     99          1           0        5.680930    2.299559   -3.927790
    100          8           0        5.152683   -0.670766   -2.509781
    101          6           0        5.883249    1.146466   -5.692790
    102          7           0        5.272677    0.750704   -6.836753
    103          1           0        5.746665    0.063094   -7.411637
    104          1           0        4.312510    0.984472   -7.042144
    105          8           0        7.070030    0.890298   -5.479141
    106          7           0        4.508577   -1.372728   -4.575752
    107          1           0        4.224577   -1.068665   -5.497747
    108          6           0        5.129334   -2.682724   -4.523953
    109          1           0        5.431157   -2.838511   -3.486475
    110          6           0        6.354839   -2.612695   -5.442697
    111          6           0        4.114635   -3.773070   -4.931011
    112          1           0        3.699501   -3.506571   -5.911254
    113          1           0        4.654331   -4.717287   -5.066877
    114          8           0        6.280033   -2.135950   -6.575395
    115          6           0        3.039458   -3.937928   -3.880753
    116          6           0        3.047294   -5.051243   -3.030049
    117          1           0        3.792779   -5.829594   -3.176299
    118          6           0        2.065389   -2.954764   -3.663673
    119          1           0        2.027301   -2.068997   -4.286385
    120          6           0        2.123093   -5.188219   -1.998922
    121          1           0        2.130082   -6.054952   -1.346331
    122          6           0        1.144088   -3.068700   -2.626359
    123          1           0        0.421763   -2.271895   -2.464177
    124          8           0        0.289240   -4.358100   -0.757202
    125          1           0       -0.312968   -3.598545   -0.734554
    126          6           0        1.169039   -4.188358   -1.790723
    127          7           0        7.506921   -3.048341   -4.884336
    128          1           0        7.500783   -3.518016   -3.987951
    129          6           0        8.801259   -2.875821   -5.514141
    130          1           0        8.664466   -2.927463   -6.597347
    131          6           0        9.688739   -4.018795   -5.057370
    132          6           0        9.453022   -1.510290   -5.168372
    133          1           0       10.374584   -1.438442   -5.755581
    134          1           0        8.775657   -0.734392   -5.538304
    135          8           0        9.463041   -4.714126   -4.088922
    136          6           0        9.793742   -1.306535   -3.676130
    137          1           0       10.177774   -2.242155   -3.252238
    138          1           0       10.610841   -0.580724   -3.597038
    139          6           0        8.659750   -0.819168   -2.762717
    140          1           0        7.752248   -1.418873   -2.896660
    141          1           0        8.974111   -0.920048   -1.719570
    142          7           0        8.373750    0.597772   -2.993788
    143          1           0        8.215903    0.860427   -3.968154
    144          7           0        7.101225    0.785413   -1.022327
    145          1           0        6.393046    1.410646   -0.603771
    146          1           0        6.741247   -0.153508   -1.157927
    147          7           0        7.455723    2.632011   -2.354041
    148          1           0        6.662253    3.086511   -1.845980
    149          1           0        7.988017    3.101703   -3.070954
    150          6           0        7.635276    1.327383   -2.132053
    151          8           0       10.791533   -4.131831   -5.817964
    152          1           0       11.330224   -4.850669   -5.435042
 ---------------------------------------------------------------------

 SCF Done:  E(RB3LYP) =  -3586.98966472     A.U. after    1 cycles

 Alpha  occ. eigenvalues --  -19.26534 -19.26318 -19.21710 -19.21378 -19.20788
 Alpha  occ. eigenvalues --  -19.19286 -19.18027 -19.17816 -19.17735 -19.17112
 Alpha  occ. eigenvalues --  -19.16704 -19.12356 -19.10139 -14.59300 -14.48800
 Alpha  occ. eigenvalues --  -14.44971 -14.42804 -14.42480 -14.42233 -14.41997
 Alpha  occ. eigenvalues --  -14.41709 -14.40846 -14.40563 -14.39897 -14.39413
 Alpha  occ. eigenvalues --  -10.43015 -10.40149 -10.38661 -10.38110 -10.37515
 Alpha  occ. eigenvalues --  -10.36612 -10.35084 -10.34910 -10.34851 -10.34376
 Alpha  occ. eigenvalues --  -10.33680 -10.33523 -10.33406 -10.31230 -10.30831
 Alpha  occ. eigenvalues --  -10.30692 -10.29970 -10.29869 -10.29080 -10.28827
 Alpha  occ. eigenvalues --  -10.28760 -10.28667 -10.28079 -10.28015 -10.27469
 Alpha  occ. eigenvalues --  -10.26868 -10.26670 -10.26347 -10.25788 -10.25718
 Alpha  occ. eigenvalues --  -10.25629 -10.25614 -10.25558 -10.25458 -10.25266
 Alpha  occ. eigenvalues --  -10.24862 -10.24797 -10.24751 -10.24376 -10.23978
 Alpha  occ. eigenvalues --  -10.23631 -10.23152 -10.22979 -10.22756 -10.22581
 Alpha  occ. eigenvalues --  -10.22579 -10.22245 -10.21844 -10.21720 -10.19735
 Alpha  occ. eigenvalues --   -1.18954  -1.17362  -1.13675  -1.13097  -1.10877
 Alpha  occ. eigenvalues --   -1.10173  -1.09843  -1.09731  -1.09461  -1.08847
 Alpha  occ. eigenvalues --   -1.08371  -1.08125  -1.06586  -1.05716  -1.04028
 Alpha  occ. eigenvalues --   -1.01792  -0.99252  -0.99191  -0.98709  -0.97861
 Alpha  occ. eigenvalues --   -0.97444  -0.97153  -0.96548  -0.95313  -0.95061
 Alpha  occ. eigenvalues --   -0.93899  -0.92473  -0.90349  -0.89350  -0.86985
 Alpha  occ. eigenvalues --   -0.86417  -0.86374  -0.85946  -0.85256  -0.83480
 Alpha  occ. eigenvalues --   -0.82606  -0.82307  -0.81917  -0.81220  -0.81100
 Alpha  occ. eigenvalues --   -0.80973  -0.79615  -0.78769  -0.78536  -0.77849
 Alpha  occ. eigenvalues --   -0.75587  -0.74155  -0.73995  -0.73704  -0.73247
 Alpha  occ. eigenvalues --   -0.73104  -0.72998  -0.72849  -0.71063  -0.70893
 Alpha  occ. eigenvalues --   -0.70754  -0.69704  -0.69062  -0.68589  -0.67880
 Alpha  occ. eigenvalues --   -0.67185  -0.67092  -0.66081  -0.66035  -0.65773
 Alpha  occ. eigenvalues --   -0.65578  -0.65177  -0.65005  -0.64568  -0.64358
 Alpha  occ. eigenvalues --   -0.63748  -0.63695  -0.63428  -0.62787  -0.62021
 Alpha  occ. eigenvalues --   -0.61901  -0.61766  -0.60632  -0.60484  -0.59852
 Alpha  occ. eigenvalues --   -0.59656  -0.59334  -0.58573  -0.58351  -0.58210
 Alpha  occ. eigenvalues --   -0.58011  -0.57482  -0.57119  -0.56835  -0.56171
 Alpha  occ. eigenvalues --   -0.55915  -0.55724  -0.55483  -0.55015  -0.54711
 Alpha  occ. eigenvalues --   -0.54436  -0.54211  -0.53729  -0.53661  -0.53257
 Alpha  occ. eigenvalues --   -0.53065  -0.52766  -0.52650  -0.52391  -0.52233
 Alpha  occ. eigenvalues --   -0.52132  -0.52100  -0.51774  -0.51566  -0.51201
 Alpha  occ. eigenvalues --   -0.51112  -0.50976  -0.50926  -0.50682  -0.50029
 Alpha  occ. eigenvalues --   -0.50020  -0.49859  -0.49500  -0.49287  -0.49186
 Alpha  occ. eigenvalues --   -0.48806  -0.48708  -0.48524  -0.48448  -0.48194
 Alpha  occ. eigenvalues --   -0.48123  -0.47874  -0.47785  -0.47667  -0.47524
 Alpha  occ. eigenvalues --   -0.47340  -0.47318  -0.47151  -0.47142  -0.47042
 Alpha  occ. eigenvalues --   -0.46892  -0.46246  -0.46156  -0.46129  -0.45662
 Alpha  occ. eigenvalues --   -0.45539  -0.45366  -0.45207  -0.45111  -0.44816
 Alpha  occ. eigenvalues --   -0.44499  -0.44384  -0.44325  -0.44113  -0.44026
 Alpha  occ. eigenvalues --   -0.43996  -0.43713  -0.43288  -0.43057  -0.42693
 Alpha  occ. eigenvalues --   -0.42670  -0.42574  -0.42340  -0.41990  -0.41784
 Alpha  occ. eigenvalues --   -0.41553  -0.41467  -0.41361  -0.41246  -0.41087
 Alpha  occ. eigenvalues --   -0.40722  -0.40604  -0.40493  -0.40414  -0.40045
 Alpha  occ. eigenvalues --   -0.39912  -0.39857  -0.39319  -0.39044  -0.38385
 Alpha  occ. eigenvalues --   -0.37897  -0.37806  -0.37603  -0.37467  -0.37336
 Alpha  occ. eigenvalues --   -0.37270  -0.36563  -0.36341  -0.35269  -0.34986
 Alpha  occ. eigenvalues --   -0.34536  -0.34418  -0.33600  -0.33415  -0.32819
 Alpha  occ. eigenvalues --   -0.32250  -0.32179  -0.31940  -0.31841  -0.31729
 Alpha  occ. eigenvalues --   -0.31141  -0.31006  -0.30996  -0.30432  -0.30366
 Alpha  occ. eigenvalues --   -0.30277  -0.29478  -0.28795  -0.27545  -0.27220
 Alpha  occ. eigenvalues --   -0.25603  -0.23830
 Alpha virt. eigenvalues --   -0.11967  -0.10860  -0.07494  -0.07341  -0.06947
 Alpha virt. eigenvalues --   -0.06535  -0.05795  -0.05387  -0.05031  -0.04089
 Alpha virt. eigenvalues --   -0.03970  -0.03823  -0.03718  -0.03617  -0.03014

 Mulliken charges:
               1
     1  N   -0.764952
     2  H    0.414512
     3  H    0.436281
     4  H    0.407826
     5  C   -0.099880
     6  H    0.216177
     7  C    0.656667
     8  C   -0.126607
     9  H    0.192365
    10  O   -0.555724
    11  C   -0.461789
    12  H    0.137955
    13  H    0.199599
    14  H    0.172473
    15  C   -0.476902
    16  H    0.140895
    17  H    0.187774
    18  H    0.199637
    19  N   -0.610509
    20  H    0.378892
    21  C   -0.077935
    22  H    0.187419
    23  C    0.652284
    24  C   -0.078602
    25  H    0.148275
    26  O   -0.555438
    27  C   -0.287662
    28  H    0.173424
    29  H    0.156005
    30  C   -0.492339
    31  H    0.224249
    32  H    0.120385
    33  H    0.157961
    34  C   -0.476041
    35  H    0.166022
    36  H    0.139147
    37  H    0.157776
    38  N   -0.616890
    39  H    0.362371
    40  C   -0.020064
    41  H    0.167895
    42  C    0.647282
    43  C   -0.407874
    44  H    0.183087
    45  H    0.182969
    46  O   -0.549142
    47  C    0.161540
    48  C   -0.175800
    49  H    0.138983
    50  C   -0.219355
    51  H    0.142420
    52  C   -0.128121
    53  H    0.146433
    54  C   -0.127435
    55  H    0.143809
    56  C   -0.129970
    57  H    0.145100
    58  N   -0.594896
    59  H    0.354985
    60  C   -0.075814
    61  H    0.169421
    62  C    0.629294
    63  C   -0.250633
    64  H    0.140018
    65  H    0.145842
    66  O   -0.543449
    67  C   -0.085909
    68  H    0.160061
    69  C   -0.442307
    70  H    0.144838
    71  H    0.138217
    72  H    0.125312
    73  C   -0.463256
    74  H    0.131550
    75  H    0.134540
    76  H    0.174288
    77  N   -0.638080
    78  H    0.351606
    79  C   -0.015560
    80  H    0.195067
    81  C    0.591797
    82  C   -0.282488
    83  H    0.161039
    84  H    0.148494
    85  O   -0.562654
    86  C   -0.365482
    87  H    0.180657
    88  H    0.146641
    89  C    0.570618
    90  O   -0.508750
    91  O   -0.667909
    92  N   -0.636946
    93  H    0.424504
    94  C   -0.066614
    95  H    0.164988
    96  C    0.635759
    97  C   -0.383935
    98  H    0.181284
    99  H    0.199391
   100  O   -0.553271
   101  C    0.596905
   102  N   -0.737927
   103  H    0.382830
   104  H    0.345629
   105  O   -0.527623
   106  N   -0.576276
   107  H    0.337468
   108  C   -0.073589
   109  H    0.180944
   110  C    0.654365
   111  C   -0.365932
   112  H    0.158374
   113  H    0.158668
   114  O   -0.560953
   115  C    0.167434
   116  C   -0.194287
   117  H    0.126388
   118  C   -0.170642
   119  H    0.132197
   120  C   -0.156281
   121  H    0.142614
   122  C   -0.193204
   123  H    0.127545
   124  O   -0.642184
   125  H    0.405864
   126  C    0.350470
   127  N   -0.608863
   128  H    0.353174
   129  C   -0.037604
   130  H    0.204577
   131  C    0.588744
   132  C   -0.306130
   133  H    0.168060
   134  H    0.203479
   135  O   -0.470914
   136  C   -0.310620
   137  H    0.161927
   138  H    0.165775
   139  C   -0.149819
   140  H    0.162411
   141  H    0.177526
   142  N   -0.616771
   143  H    0.384502
   144  N   -0.750515
   145  H    0.386708
   146  H    0.374259
   147  N   -0.771756
   148  H    0.410399
   149  H    0.348296
   150  C    0.729577
   151  O   -0.557994
   152  H    0.423656
 Sum of Mulliken charges =   1.00000

 Dipole moment (field-independent basis, Debye):
    X=            -31.0869    Y=              9.4079    Z=              4.1178  Tot=             32.7393
 Quadrupole moment (field-independent basis, Debye-Ang):
   XX=             85.2663   YY=           -394.9141   ZZ=           -315.6837
   XY=           -204.8206   XZ=           -190.2207   YZ=             43.5959

 Normal termination of Gaussian 16 at Mon Aug 15 06:23:47 2022.
