 Gaussian 16, Revision C.01,
 Gaussian 16:  ES64L-G16RevC.01  3-Jul-2019

 ----------------------------------------------------------------------
 # B3LYP/6-31G* empiricaldispersion=gd3bj guess=read geom=check nosymm
 integral(ultrafinegrid)
 ----------------------------------------------------------------------

 ------------------------------------------------------
 Candidate Structure: Conf:883 Charge calc in gas phase
 ------------------------------------------------------
 Structure from the checkpoint file:  "conf-883.chk"
 Charge =  1 Multiplicity = 1

                          Input orientation:
 ---------------------------------------------------------------------
 Center     Atomic      Atomic             Coordinates (Angstroms)
 Number     Number       Type             X           Y           Z
 ---------------------------------------------------------------------
      1          7           0      -10.195691    5.612771    3.895473
      2          1           0      -10.999789    5.360733    3.315534
      3          1           0      -10.124921    4.931464    4.719157
      4          1           0      -10.311521    6.576023    4.220450
      5          6           0       -8.865020    5.375818    3.208782
      6          1           0       -9.057575    5.196546    2.148738
      7          6           0       -8.365746    4.090333    3.919465
      8          6           0       -7.940605    6.603626    3.390191
      9          1           0       -8.528496    7.466380    3.041725
     10          8           0       -8.963711    3.743365    4.954227
     11          6           0       -7.551771    6.824806    4.858611
     12          1           0       -6.935818    5.999710    5.230202
     13          1           0       -6.969264    7.745300    4.951156
     14          1           0       -8.415531    6.920527    5.528156
     15          6           0       -6.700847    6.511967    2.488787
     16          1           0       -5.998262    5.743060    2.822839
     17          1           0       -6.969392    6.307884    1.446086
     18          1           0       -6.169657    7.467637    2.510282
     19          7           0       -7.326784    3.478498    3.382492
     20          1           0       -6.841006    3.837680    2.559544
     21          6           0       -6.631529    2.335446    3.972341
     22          1           0       -6.642516    2.455524    5.058495
     23          6           0       -5.200923    2.460598    3.423017
     24          6           0       -7.334593    1.000135    3.589780
     25          1           0       -8.371863    1.139563    3.925313
     26          8           0       -4.982874    3.165149    2.433177
     27          6           0       -6.767690   -0.224804    4.331497
     28          1           0       -5.772994   -0.459515    3.935490
     29          1           0       -7.398590   -1.077282    4.052304
     30          6           0       -7.320355    0.765461    2.074378
     31          1           0       -6.305491    0.562489    1.719505
     32          1           0       -7.720430    1.623329    1.522463
     33          1           0       -7.939507   -0.103330    1.829224
     34          6           0       -6.752271   -0.113420    5.860409
     35          1           0       -6.476462   -1.070410    6.313852
     36          1           0       -6.036769    0.631672    6.234340
     37          1           0       -7.737925    0.168720    6.249180
     38          7           0       -4.238788    1.784014    4.080456
     39          1           0       -4.533793    1.102027    4.766612
     40          6           0       -2.944432    1.545398    3.452465
     41          1           0       -2.536944    2.510895    3.142481
     42          6           0       -3.133599    0.635828    2.226045
     43          6           0       -2.004101    0.873174    4.474594
     44          1           0       -2.467661   -0.068973    4.793042
     45          1           0       -1.950294    1.525994    5.354738
     46          8           0       -4.013178   -0.227126    2.204531
     47          6           0       -0.619200    0.598265    3.932935
     48          6           0       -0.195377   -0.712388    3.685901
     49          1           0       -0.875848   -1.537986    3.881830
     50          6           0        0.262308    1.654706    3.667074
     51          1           0       -0.051206    2.679212    3.860699
     52          6           0        1.095259   -0.966640    3.218998
     53          1           0        1.445024   -1.981529    3.059627
     54          6           0        1.545545    1.403277    3.181755
     55          1           0        2.220392    2.230087    2.980882
     56          6           0        1.971990    0.090314    2.972365
     57          1           0        2.980193   -0.139566    2.643831
     58          7           0       -2.245673    0.834249    1.235901
     59          1           0       -1.477497    1.486098    1.358577
     60          6           0       -2.072222   -0.108601    0.139023
     61          1           0       -2.510654   -1.058186    0.453726
     62          6           0       -0.563013   -0.223183   -0.061664
     63          6           0       -2.749805    0.395381   -1.148173
     64          1           0       -2.325701    1.382105   -1.375333
     65          1           0       -3.812766    0.550724   -0.923590
     66          8           0        0.133883    0.797949   -0.056947
     67          6           0       -2.596218   -0.533193   -2.364983
     68          1           0       -1.530504   -0.750447   -2.510751
     69          6           0       -3.325639   -1.867999   -2.161257
     70          1           0       -4.398571   -1.707860   -1.995176
     71          1           0       -2.944122   -2.429065   -1.299445
     72          1           0       -3.212540   -2.509627   -3.041469
     73          6           0       -3.104961    0.173373   -3.627174
     74          1           0       -4.168359    0.429976   -3.535347
     75          1           0       -2.990276   -0.467412   -4.508145
     76          1           0       -2.550818    1.101172   -3.813272
     77          7           0       -0.055432   -1.460797   -0.224843
     78          1           0       -0.680584   -2.237953   -0.386720
     79          6           0        1.361773   -1.613886   -0.496562
     80          1           0        1.859548   -0.935029    0.191594
     81          6           0        1.659986   -1.132141   -1.925746
     82          6           0        1.845844   -3.040596   -0.200377
     83          1           0        1.465695   -3.733823   -0.961910
     84          1           0        1.414506   -3.333272    0.763572
     85          8           0        0.800314   -1.191803   -2.819332
     86          6           0        3.382109   -3.134241   -0.097348
     87          1           0        3.647213   -4.124835    0.281430
     88          1           0        3.840753   -3.002700   -1.082165
     89          6           0        3.892401   -2.057968    0.880171
     90          8           0        4.177657   -0.917862    0.322938
     91          8           0        3.902375   -2.292903    2.089566
     92          7           0        2.881237   -0.595506   -2.104792
     93          1           0        3.566693   -0.649655   -1.324613
     94          6           0        3.262723   -0.032070   -3.382949
     95          1           0        2.638561   -0.499240   -4.148900
     96          6           0        4.750961   -0.277892   -3.629622
     97          6           0        3.128414    1.522603   -3.442589
     98          1           0        4.011109    1.957421   -2.975293
     99          1           0        3.146021    1.844420   -4.489630
    100          8           0        5.564692   -0.152121   -2.720787
    101          6           0        1.938387    2.158043   -2.738113
    102          7           0        0.712188    1.648587   -2.973373
    103          1           0        0.002006    1.951556   -2.316576
    104          1           0        0.626785    0.677756   -3.276378
    105          8           0        2.106119    3.154078   -2.012922
    106          7           0        5.113475   -0.505553   -4.932204
    107          1           0        4.384226   -0.335181   -5.615964
    108          6           0        6.423140   -0.000084   -5.338926
    109          1           0        7.152291   -0.370811   -4.616865
    110          6           0        6.351051    1.535810   -5.271052
    111          6           0        6.822610   -0.447111   -6.757608
    112          1           0        6.929700   -1.537081   -6.768028
    113          1           0        6.020260   -0.181475   -7.455995
    114          8           0        5.353555    2.135297   -5.676569
    115          6           0        8.103113    0.259905   -7.139246
    116          6           0        8.068359    1.444965   -7.885544
    117          1           0        7.125507    1.778595   -8.310742
    118          6           0        9.325547   -0.136587   -6.586281
    119          1           0        9.381702   -1.054689   -6.005595
    120          6           0        9.205987    2.226626   -8.055985
    121          1           0        9.177635    3.147176   -8.629687
    122          6           0       10.474058    0.636275   -6.745723
    123          1           0       11.413664    0.317313   -6.300131
    124          8           0       11.490902    2.649275   -7.639267
    125          1           0       12.250344    2.274868   -7.166325
    126          6           0       10.412561    1.831717   -7.469174
    127          7           0        7.410209    2.158575   -4.717197
    128          1           0        8.275536    1.660215   -4.544029
    129          6           0        7.451333    3.601029   -4.606176
    130          1           0        7.089547    4.046688   -5.539862
    131          6           0        8.904283    3.998986   -4.418720
    132          6           0        6.554229    4.103371   -3.449133
    133          1           0        6.605116    5.197507   -3.416747
    134          1           0        5.527571    3.827209   -3.708387
    135          8           0        9.818384    3.220106   -4.251092
    136          6           0        6.947736    3.510220   -2.094033
    137          1           0        6.960546    2.416614   -2.173767
    138          1           0        7.968453    3.824158   -1.837511
    139          6           0        6.025382    3.935715   -0.939307
    140          1           0        6.538113    3.789568    0.016832
    141          1           0        5.796693    5.003786   -1.015517
    142          7           0        4.748911    3.228461   -0.858986
    143          1           0        3.908419    3.585238   -1.318346
    144          7           0        5.630143    1.384131    0.297745
    145          1           0        5.362144    0.425025    0.581939
    146          1           0        6.464204    1.420968   -0.272211
    147          7           0        3.351801    1.690582    0.182404
    148          1           0        3.277816    0.708983    0.463410
    149          1           0        2.537390    2.161798   -0.194503
    150          6           0        4.577649    2.097268   -0.154045
    151          8           0        9.059106    5.335760   -4.439513
    152          1           0       10.011206    5.511783   -4.315667
 ---------------------------------------------------------------------

 SCF Done:  E(RB3LYP) =  -3587.01442849     A.U. after    3 cycles

 Alpha  occ. eigenvalues --  -19.26565 -19.26352 -19.22313 -19.21750 -19.20856
 Alpha  occ. eigenvalues --  -19.18096 -19.18018 -19.17962 -19.17634 -19.17159
 Alpha  occ. eigenvalues --  -19.16868 -19.12854 -19.11187 -14.59605 -14.48973
 Alpha  occ. eigenvalues --  -14.45173 -14.42647 -14.42187 -14.42147 -14.41756
 Alpha  occ. eigenvalues --  -14.41555 -14.40585 -14.40559 -14.40093 -14.39882
 Alpha  occ. eigenvalues --  -10.43156 -10.40318 -10.38728 -10.38464 -10.37945
 Alpha  occ. eigenvalues --  -10.35090 -10.34896 -10.34790 -10.34692 -10.34457
 Alpha  occ. eigenvalues --  -10.34007 -10.33616 -10.33551 -10.30978 -10.30438
 Alpha  occ. eigenvalues --  -10.29908 -10.29759 -10.29709 -10.29586 -10.29420
 Alpha  occ. eigenvalues --  -10.29276 -10.28972 -10.28802 -10.28188 -10.27617
 Alpha  occ. eigenvalues --  -10.26560 -10.25562 -10.25395 -10.25087 -10.25064
 Alpha  occ. eigenvalues --  -10.24964 -10.24941 -10.24711 -10.24625 -10.24008
 Alpha  occ. eigenvalues --  -10.23996 -10.23907 -10.23865 -10.23740 -10.23674
 Alpha  occ. eigenvalues --  -10.23606 -10.23591 -10.23322 -10.23134 -10.23129
 Alpha  occ. eigenvalues --  -10.22542 -10.22465 -10.22092 -10.22037 -10.21144
 Alpha  occ. eigenvalues --   -1.19072  -1.17403  -1.13947  -1.13321  -1.10435
 Alpha  occ. eigenvalues --   -1.10405  -1.10262  -1.09616  -1.09078  -1.08899
 Alpha  occ. eigenvalues --   -1.08371  -1.08234  -1.06947  -1.05864  -1.04922
 Alpha  occ. eigenvalues --   -1.01852  -0.98917  -0.98692  -0.98574  -0.98415
 Alpha  occ. eigenvalues --   -0.97582  -0.96938  -0.95882  -0.95384  -0.95176
 Alpha  occ. eigenvalues --   -0.94125  -0.90708  -0.90402  -0.90053  -0.86963
 Alpha  occ. eigenvalues --   -0.86555  -0.86209  -0.85464  -0.85161  -0.84046
 Alpha  occ. eigenvalues --   -0.82532  -0.82406  -0.81331  -0.81300  -0.80683
 Alpha  occ. eigenvalues --   -0.79828  -0.79546  -0.78627  -0.78012  -0.77625
 Alpha  occ. eigenvalues --   -0.75818  -0.75294  -0.74642  -0.73745  -0.73496
 Alpha  occ. eigenvalues --   -0.73145  -0.72698  -0.72403  -0.71024  -0.70732
 Alpha  occ. eigenvalues --   -0.69971  -0.69550  -0.68941  -0.68414  -0.67863
 Alpha  occ. eigenvalues --   -0.67210  -0.67018  -0.66413  -0.66064  -0.65427
 Alpha  occ. eigenvalues --   -0.65140  -0.64804  -0.64317  -0.64149  -0.63976
 Alpha  occ. eigenvalues --   -0.63537  -0.63331  -0.62866  -0.62742  -0.62455
 Alpha  occ. eigenvalues --   -0.62113  -0.61659  -0.61271  -0.60660  -0.60261
 Alpha  occ. eigenvalues --   -0.59944  -0.59110  -0.58715  -0.58569  -0.57403
 Alpha  occ. eigenvalues --   -0.56812  -0.56648  -0.56120  -0.56014  -0.55871
 Alpha  occ. eigenvalues --   -0.55620  -0.55377  -0.54960  -0.54764  -0.54582
 Alpha  occ. eigenvalues --   -0.54509  -0.54237  -0.54042  -0.53698  -0.53608
 Alpha  occ. eigenvalues --   -0.53429  -0.53103  -0.52840  -0.52678  -0.52375
 Alpha  occ. eigenvalues --   -0.52032  -0.51764  -0.51696  -0.51329  -0.51161
 Alpha  occ. eigenvalues --   -0.50848  -0.50621  -0.50402  -0.50375  -0.50160
 Alpha  occ. eigenvalues --   -0.50041  -0.49839  -0.49815  -0.49583  -0.49479
 Alpha  occ. eigenvalues --   -0.49400  -0.48875  -0.48487  -0.48359  -0.48317
 Alpha  occ. eigenvalues --   -0.48142  -0.47698  -0.47664  -0.47527  -0.47169
 Alpha  occ. eigenvalues --   -0.47160  -0.47094  -0.47057  -0.47019  -0.46787
 Alpha  occ. eigenvalues --   -0.46499  -0.46194  -0.46160  -0.46097  -0.45988
 Alpha  occ. eigenvalues --   -0.45465  -0.45344  -0.45111  -0.45014  -0.44804
 Alpha  occ. eigenvalues --   -0.44615  -0.44384  -0.44058  -0.43965  -0.43718
 Alpha  occ. eigenvalues --   -0.43711  -0.43403  -0.43253  -0.42935  -0.42823
 Alpha  occ. eigenvalues --   -0.42464  -0.42259  -0.42225  -0.42212  -0.42098
 Alpha  occ. eigenvalues --   -0.41711  -0.41514  -0.41468  -0.41189  -0.41025
 Alpha  occ. eigenvalues --   -0.40837  -0.40621  -0.40249  -0.40100  -0.40001
 Alpha  occ. eigenvalues --   -0.39830  -0.39599  -0.38583  -0.38430  -0.38349
 Alpha  occ. eigenvalues --   -0.38307  -0.38243  -0.38046  -0.37999  -0.37719
 Alpha  occ. eigenvalues --   -0.37611  -0.37339  -0.37124  -0.35743  -0.35247
 Alpha  occ. eigenvalues --   -0.34495  -0.33508  -0.33280  -0.32984  -0.32634
 Alpha  occ. eigenvalues --   -0.32522  -0.32120  -0.32028  -0.31839  -0.31521
 Alpha  occ. eigenvalues --   -0.31094  -0.30956  -0.30411  -0.30239  -0.29968
 Alpha  occ. eigenvalues --   -0.29611  -0.29181  -0.28527  -0.28017  -0.27543
 Alpha  occ. eigenvalues --   -0.26387  -0.24976
 Alpha virt. eigenvalues --   -0.11959  -0.11018  -0.07607  -0.06683  -0.06070
 Alpha virt. eigenvalues --   -0.05611  -0.05188  -0.05025  -0.04910  -0.04674
 Alpha virt. eigenvalues --   -0.04490  -0.03795  -0.03575  -0.03474  -0.03410

 Mulliken charges:
               1
     1  N   -0.763437
     2  H    0.415512
     3  H    0.436111
     4  H    0.410232
     5  C   -0.104961
     6  H    0.210772
     7  C    0.653716
     8  C   -0.111124
     9  H    0.158199
    10  O   -0.554473
    11  C   -0.470029
    12  H    0.185813
    13  H    0.193972
    14  H    0.141497
    15  C   -0.481513
    16  H    0.191433
    17  H    0.165936
    18  H    0.188327
    19  N   -0.602418
    20  H    0.382851
    21  C   -0.089153
    22  H    0.190712
    23  C    0.650624
    24  C   -0.072534
    25  H    0.144918
    26  O   -0.553860
    27  C   -0.298485
    28  H    0.184012
    29  H    0.156523
    30  C   -0.480226
    31  H    0.206423
    32  H    0.122007
    33  H    0.160071
    34  C   -0.471836
    35  H    0.171921
    36  H    0.129990
    37  H    0.159204
    38  N   -0.606309
    39  H    0.356337
    40  C   -0.056873
    41  H    0.178475
    42  C    0.640440
    43  C   -0.383908
    44  H    0.159395
    45  H    0.169436
    46  O   -0.546806
    47  C    0.161670
    48  C   -0.188955
    49  H    0.126403
    50  C   -0.200974
    51  H    0.116267
    52  C   -0.147063
    53  H    0.167681
    54  C   -0.118245
    55  H    0.135761
    56  C   -0.152095
    57  H    0.186522
    58  N   -0.596584
    59  H    0.359863
    60  C   -0.051248
    61  H    0.173607
    62  C    0.639697
    63  C   -0.251290
    64  H    0.134953
    65  H    0.148840
    66  O   -0.574899
    67  C   -0.118043
    68  H    0.175733
    69  C   -0.446831
    70  H    0.144588
    71  H    0.126117
    72  H    0.156328
    73  C   -0.444413
    74  H    0.136609
    75  H    0.151757
    76  H    0.140634
    77  N   -0.595659
    78  H    0.342325
    79  C   -0.067529
    80  H    0.207425
    81  C    0.627001
    82  C   -0.306151
    83  H    0.148120
    84  H    0.166393
    85  O   -0.573620
    86  C   -0.334689
    87  H    0.159816
    88  H    0.144443
    89  C    0.580429
    90  O   -0.653211
    91  O   -0.526785
    92  N   -0.644263
    93  H    0.421499
    94  C   -0.054009
    95  H    0.174859
    96  C    0.605192
    97  C   -0.391291
    98  H    0.184484
    99  H    0.210719
   100  O   -0.524291
   101  C    0.595899
   102  N   -0.741540
   103  H    0.350578
   104  H    0.384879
   105  O   -0.565410
   106  N   -0.575709
   107  H    0.336488
   108  C   -0.057471
   109  H    0.181051
   110  C    0.628323
   111  C   -0.363589
   112  H    0.170497
   113  H    0.156613
   114  O   -0.563104
   115  C    0.138790
   116  C   -0.181758
   117  H    0.143628
   118  C   -0.206332
   119  H    0.136795
   120  C   -0.166824
   121  H    0.147481
   122  C   -0.182059
   123  H    0.131847
   124  O   -0.639163
   125  H    0.412936
   126  C    0.358798
   127  N   -0.597476
   128  H    0.364938
   129  C   -0.028243
   130  H    0.201164
   131  C    0.588950
   132  C   -0.287558
   133  H    0.162013
   134  H    0.184174
   135  O   -0.470301
   136  C   -0.290727
   137  H    0.173709
   138  H    0.151544
   139  C   -0.166979
   140  H    0.179745
   141  H    0.169884
   142  N   -0.617742
   143  H    0.385414
   144  N   -0.759719
   145  H    0.401944
   146  H    0.355397
   147  N   -0.805696
   148  H    0.426635
   149  H    0.385923
   150  C    0.741523
   151  O   -0.563728
   152  H    0.423060
 Sum of Mulliken charges =   1.00000

 Dipole moment (field-independent basis, Debye):
    X=            -26.8518    Y=             25.6486    Z=              7.1046  Tot=             37.8067
 Quadrupole moment (field-independent basis, Debye-Ang):
   XX=             14.6020   YY=           -286.6953   ZZ=           -370.4554
   XY=           -154.4144   XZ=           -188.5335   YZ=             80.2249

 Normal termination of Gaussian 16 at Mon Aug 15 06:26:06 2022.
