 Gaussian 16, Revision C.01,
 Gaussian 16:  ES64L-G16RevC.01  3-Jul-2019

 ----------------------------------------------------------------------
 # B3LYP/6-31G* empiricaldispersion=gd3bj guess=read geom=check nosymm
 integral(ultrafinegrid)
 ----------------------------------------------------------------------

 ------------------------------------------------------
 Candidate Structure: Conf:217 Charge calc in gas phase
 ------------------------------------------------------
 Structure from the checkpoint file:  "conf-217.chk"
 Charge =  1 Multiplicity = 1

                          Input orientation:
 ---------------------------------------------------------------------
 Center     Atomic      Atomic             Coordinates (Angstroms)
 Number     Number       Type             X           Y           Z
 ---------------------------------------------------------------------
      1          7           0      -10.163339    5.313325    6.422847
      2          1           0      -10.941149    5.937567    6.200697
      3          1           0      -10.409580    4.297963    6.172850
      4          1           0       -9.954159    5.391216    7.421351
      5          6           0       -8.941769    5.529705    5.554266
      6          1           0       -9.173985    6.335979    4.854106
      7          6           0       -8.829146    4.176648    4.802094
      8          6           0       -7.695478    5.886586    6.387791
      9          1           0       -6.883812    5.980947    5.655832
     10          8           0       -9.646296    3.285866    5.098806
     11          6           0       -7.860280    7.244277    7.083081
     12          1           0       -8.638614    7.221703    7.858025
     13          1           0       -6.929119    7.525239    7.582676
     14          1           0       -8.112265    8.037605    6.371140
     15          6           0       -7.313587    4.772211    7.372004
     16          1           0       -8.064584    4.632538    8.161910
     17          1           0       -7.168665    3.811407    6.869461
     18          1           0       -6.379018    5.030872    7.876583
     19          7           0       -7.855900    4.079961    3.917402
     20          1           0       -7.168415    4.822164    3.754100
     21          6           0       -7.503514    2.869137    3.177854
     22          1           0       -7.574932    2.017282    3.859179
     23          6           0       -6.037887    3.119371    2.769469
     24          6           0       -8.454654    2.645987    1.968254
     25          1           0       -9.462876    2.661212    2.403923
     26          8           0       -5.573355    4.265986    2.829769
     27          6           0       -8.274942    1.274602    1.288606
     28          1           0       -7.317463    1.237106    0.756012
     29          1           0       -9.046760    1.207209    0.512219
     30          6           0       -8.338894    3.782480    0.946589
     31          1           0       -7.351830    3.791139    0.471402
     32          1           0       -8.496756    4.764220    1.405567
     33          1           0       -9.087133    3.657691    0.157761
     34          6           0       -8.402924    0.062289    2.216262
     35          1           0       -8.403264   -0.863986    1.634681
     36          1           0       -7.573405   -0.018109    2.929388
     37          1           0       -9.332951    0.100696    2.795776
     38          7           0       -5.366934    2.049112    2.342759
     39          1           0       -5.790118    1.125155    2.299337
     40          6           0       -4.025923    2.081698    1.779723
     41          1           0       -3.892978    3.022768    1.239753
     42          6           0       -3.976245    0.881944    0.825284
     43          6           0       -2.954963    1.963708    2.894842
     44          1           0       -3.191095    1.071354    3.484704
     45          1           0       -3.089211    2.835150    3.546458
     46          8           0       -4.687993   -0.104073    1.051589
     47          6           0       -1.536199    1.884031    2.382303
     48          6           0       -0.805329    0.695945    2.499837
     49          1           0       -1.269879   -0.168869    2.969047
     50          6           0       -0.927909    2.990801    1.774490
     51          1           0       -1.477684    3.926549    1.685634
     52          6           0        0.513580    0.618043    2.050214
     53          1           0        1.099855   -0.288125    2.165861
     54          6           0        0.381964    2.907856    1.300603
     55          1           0        0.837416    3.773247    0.827351
     56          6           0        1.111756    1.726359    1.446408
     57          1           0        2.138618    1.648965    1.099238
     58          7           0       -3.136128    1.002035   -0.212126
     59          1           0       -2.497069    1.792380   -0.255612
     60          6           0       -2.734789   -0.116631   -1.062126
     61          1           0       -2.968960   -1.041776   -0.529538
     62          6           0       -1.225720    0.066809   -1.244155
     63          6           0       -3.424962   -0.084664   -2.436683
     64          1           0       -3.004015   -0.896553   -3.046763
     65          1           0       -3.133409    0.854265   -2.922817
     66          8           0       -0.769347    1.190727   -1.453648
     67          6           0       -4.956601   -0.206356   -2.405652
     68          1           0       -5.340996    0.577156   -1.737289
     69          6           0       -5.521407    0.047088   -3.809206
     70          1           0       -5.161505   -0.710291   -4.517183
     71          1           0       -5.221663    1.029928   -4.191377
     72          1           0       -6.616531    0.003536   -3.806561
     73          6           0       -5.422479   -1.563341   -1.863875
     74          1           0       -5.003704   -2.385110   -2.459708
     75          1           0       -6.514688   -1.643398   -1.915286
     76          1           0       -5.131974   -1.698099   -0.818880
     77          7           0       -0.452805   -1.032491   -1.147165
     78          1           0       -0.864780   -1.943885   -1.011355
     79          6           0        0.989326   -0.894897   -1.216342
     80          1           0        1.256693   -0.084125   -0.535645
     81          6           0        1.433266   -0.491417   -2.623916
     82          6           0        1.688276   -2.183890   -0.750279
     83          1           0        1.456421   -2.999526   -1.447668
     84          1           0        1.274289   -2.441559    0.230997
     85          8           0        0.851700   -0.887166   -3.643914
     86          6           0        3.211050   -2.013664   -0.592202
     87          1           0        3.610472   -2.918254   -0.123830
     88          1           0        3.692684   -1.895431   -1.568082
     89          6           0        3.487547   -0.804000    0.334054
     90          8           0        3.894691    0.285531   -0.235373
     91          8           0        3.210423   -0.935174    1.530572
     92          7           0        2.537447    0.279223   -2.631155
     93          1           0        2.967158    0.497961   -1.715480
     94          6           0        3.227627    0.554190   -3.870049
     95          1           0        3.176519   -0.363417   -4.470173
     96          6           0        4.727866    0.812744   -3.717360
     97          6           0        2.552053    1.700585   -4.683750
     98          1           0        1.616007    1.959176   -4.181488
     99          1           0        3.192100    2.581049   -4.730583
    100          8           0        5.357809    1.222575   -4.709869
    101          6           0        2.261958    1.263859   -6.105873
    102          7           0        1.369968    0.264787   -6.218646
    103          1           0        1.174817   -0.119021   -7.132845
    104          1           0        1.026352   -0.212123   -5.375632
    105          8           0        2.830400    1.794039   -7.076182
    106          7           0        5.306462    0.535992   -2.546393
    107          1           0        4.758917    0.298587   -1.689804
    108          6           0        6.739388    0.661356   -2.363986
    109          1           0        7.030526    1.720226   -2.395959
    110          6           0        7.504730   -0.098832   -3.457303
    111          6           0        7.111026    0.065693   -0.978607
    112          1           0        6.614275    0.658915   -0.204614
    113          1           0        6.685883   -0.941466   -0.931813
    114          8           0        7.180098   -1.222130   -3.821359
    115          6           0        8.606717    0.008623   -0.803388
    116          6           0        9.303758   -1.168763   -1.104242
    117          1           0        8.745456   -2.070258   -1.338913
    118          6           0        9.348072    1.155058   -0.498409
    119          1           0        8.831928    2.075606   -0.236651
    120          6           0       10.693151   -1.190942   -1.168986
    121          1           0       11.228830   -2.091929   -1.446874
    122          6           0       10.740470    1.151650   -0.567505
    123          1           0       11.300123    2.065168   -0.380393
    124          8           0       12.762586   -0.042459   -1.199906
    125          1           0       13.127603    0.839911   -1.026515
    126          6           0       11.407149   -0.013078   -0.948614
    127          7           0        8.608403    0.552920   -3.934805
    128          1           0        8.914439    1.399871   -3.469768
    129          6           0        9.657061   -0.173528   -4.637951
    130          1           0        9.503100   -1.237564   -4.447714
    131          6           0       10.985092    0.274930   -4.042051
    132          6           0        9.651019    0.072037   -6.162339
    133          1           0       10.030161    1.083573   -6.362143
    134          1           0       10.363761   -0.625748   -6.615410
    135          8           0       11.193546    1.413822   -3.674818
    136          6           0        8.251877   -0.104186   -6.785197
    137          1           0        8.346892   -0.540782   -7.787209
    138          1           0        7.660660   -0.805549   -6.188751
    139          6           0        7.502918    1.235423   -6.856475
    140          1           0        7.419152    1.657985   -5.857505
    141          1           0        8.050309    1.958188   -7.478065
    142          7           0        6.126740    1.122317   -7.346447
    143          1           0        5.407923    1.153314   -6.614544
    144          7           0        6.743532    0.810359   -9.571521
    145          1           0        6.523872    1.065111  -10.523126
    146          1           0        7.713604    0.893104   -9.310164
    147          7           0        4.506836    0.961668   -8.999753
    148          1           0        4.272918    0.721650   -9.950677
    149          1           0        3.749284    1.212818   -8.338154
    150          6           0        5.786385    0.977048   -8.619106
    151          8           0       11.889340   -0.712008   -3.972663
    152          1           0       12.625742   -0.387603   -3.411064
 ---------------------------------------------------------------------

 SCF Done:  E(RB3LYP) =  -3586.99141245     A.U. after    1 cycles

 Alpha  occ. eigenvalues --  -19.26187 -19.24115 -19.22804 -19.20534 -19.18866
 Alpha  occ. eigenvalues --  -19.17895 -19.17411 -19.16467 -19.15857 -19.15799
 Alpha  occ. eigenvalues --  -19.15507 -19.10653 -19.09085 -14.58952 -14.48328
 Alpha  occ. eigenvalues --  -14.45836 -14.44085 -14.43913 -14.43554 -14.41505
 Alpha  occ. eigenvalues --  -14.40562 -14.40078 -14.39974 -14.38996 -14.38599
 Alpha  occ. eigenvalues --  -10.42635 -10.41101 -10.39797 -10.37483 -10.36843
 Alpha  occ. eigenvalues --  -10.34768 -10.34446 -10.33996 -10.33364 -10.32949
 Alpha  occ. eigenvalues --  -10.32860 -10.32667 -10.32174 -10.30494 -10.30291
 Alpha  occ. eigenvalues --  -10.29970 -10.28786 -10.28751 -10.28305 -10.28243
 Alpha  occ. eigenvalues --  -10.28014 -10.27979 -10.27833 -10.27361 -10.26159
 Alpha  occ. eigenvalues --  -10.25535 -10.25240 -10.24835 -10.24707 -10.24522
 Alpha  occ. eigenvalues --  -10.24470 -10.23666 -10.23038 -10.23020 -10.23005
 Alpha  occ. eigenvalues --  -10.22924 -10.22899 -10.22771 -10.22622 -10.22536
 Alpha  occ. eigenvalues --  -10.22416 -10.22360 -10.21983 -10.21639 -10.21555
 Alpha  occ. eigenvalues --  -10.21384 -10.20761 -10.20543 -10.20432 -10.19786
 Alpha  occ. eigenvalues --   -1.18594  -1.15354  -1.13078  -1.12410  -1.10322
 Alpha  occ. eigenvalues --   -1.09781  -1.09777  -1.08621  -1.08345  -1.08178
 Alpha  occ. eigenvalues --   -1.07241  -1.06906  -1.06386  -1.05243  -1.02889
 Alpha  occ. eigenvalues --   -1.00747  -0.98955  -0.98265  -0.97825  -0.97270
 Alpha  occ. eigenvalues --   -0.96936  -0.96889  -0.95579  -0.95268  -0.94940
 Alpha  occ. eigenvalues --   -0.94032  -0.90184  -0.89388  -0.88639  -0.86102
 Alpha  occ. eigenvalues --   -0.85842  -0.85802  -0.84161  -0.83815  -0.82677
 Alpha  occ. eigenvalues --   -0.81819  -0.81476  -0.81282  -0.80601  -0.79644
 Alpha  occ. eigenvalues --   -0.79503  -0.78691  -0.77102  -0.77008  -0.76873
 Alpha  occ. eigenvalues --   -0.75040  -0.74341  -0.73630  -0.73365  -0.72593
 Alpha  occ. eigenvalues --   -0.72144  -0.72046  -0.71394  -0.71097  -0.70609
 Alpha  occ. eigenvalues --   -0.70101  -0.69419  -0.69097  -0.67643  -0.66659
 Alpha  occ. eigenvalues --   -0.66554  -0.66305  -0.66034  -0.65624  -0.65212
 Alpha  occ. eigenvalues --   -0.64913  -0.64079  -0.63690  -0.63428  -0.63097
 Alpha  occ. eigenvalues --   -0.62922  -0.62530  -0.62491  -0.61733  -0.61596
 Alpha  occ. eigenvalues --   -0.61330  -0.61240  -0.60623  -0.59584  -0.59286
 Alpha  occ. eigenvalues --   -0.59252  -0.58898  -0.58617  -0.58358  -0.58011
 Alpha  occ. eigenvalues --   -0.57798  -0.57044  -0.56451  -0.56021  -0.55358
 Alpha  occ. eigenvalues --   -0.54832  -0.54735  -0.54189  -0.54108  -0.53562
 Alpha  occ. eigenvalues --   -0.53499  -0.53454  -0.53133  -0.53089  -0.52714
 Alpha  occ. eigenvalues --   -0.52521  -0.52219  -0.52085  -0.51771  -0.51639
 Alpha  occ. eigenvalues --   -0.51416  -0.51228  -0.50787  -0.50638  -0.50534
 Alpha  occ. eigenvalues --   -0.50274  -0.50104  -0.49941  -0.49897  -0.49809
 Alpha  occ. eigenvalues --   -0.49185  -0.49121  -0.48734  -0.48600  -0.48335
 Alpha  occ. eigenvalues --   -0.48092  -0.47834  -0.47774  -0.47651  -0.47390
 Alpha  occ. eigenvalues --   -0.47241  -0.47048  -0.46981  -0.46962  -0.46762
 Alpha  occ. eigenvalues --   -0.46687  -0.46618  -0.46294  -0.46092  -0.45850
 Alpha  occ. eigenvalues --   -0.45381  -0.45267  -0.44958  -0.44628  -0.44436
 Alpha  occ. eigenvalues --   -0.44419  -0.44414  -0.43970  -0.43844  -0.43686
 Alpha  occ. eigenvalues --   -0.43674  -0.43434  -0.43235  -0.43004  -0.42778
 Alpha  occ. eigenvalues --   -0.42709  -0.42345  -0.42079  -0.41968  -0.41876
 Alpha  occ. eigenvalues --   -0.41464  -0.41347  -0.41289  -0.41038  -0.40930
 Alpha  occ. eigenvalues --   -0.40611  -0.40554  -0.40419  -0.40247  -0.40048
 Alpha  occ. eigenvalues --   -0.39908  -0.39865  -0.39772  -0.38918  -0.38652
 Alpha  occ. eigenvalues --   -0.38397  -0.38154  -0.37542  -0.37524  -0.37025
 Alpha  occ. eigenvalues --   -0.36967  -0.36815  -0.36675  -0.36580  -0.36520
 Alpha  occ. eigenvalues --   -0.36470  -0.36340  -0.36264  -0.35585  -0.34713
 Alpha  occ. eigenvalues --   -0.33692  -0.33473  -0.32770  -0.32266  -0.32038
 Alpha  occ. eigenvalues --   -0.31770  -0.31651  -0.31029  -0.30782  -0.30519
 Alpha  occ. eigenvalues --   -0.29806  -0.29498  -0.29082  -0.29015  -0.28833
 Alpha  occ. eigenvalues --   -0.28618  -0.27590  -0.26800  -0.26040  -0.25609
 Alpha  occ. eigenvalues --   -0.25062  -0.23065
 Alpha virt. eigenvalues --   -0.11620  -0.10526  -0.06418  -0.06130  -0.05288
 Alpha virt. eigenvalues --   -0.04864  -0.04034  -0.03968  -0.03782  -0.03445
 Alpha virt. eigenvalues --   -0.03222  -0.02984  -0.02868  -0.02075  -0.01852

 Mulliken charges:
               1
     1  N   -0.765002
     2  H    0.413775
     3  H    0.436188
     4  H    0.407762
     5  C   -0.098978
     6  H    0.214635
     7  C    0.653491
     8  C   -0.127528
     9  H    0.194069
    10  O   -0.555744
    11  C   -0.461688
    12  H    0.137484
    13  H    0.199713
    14  H    0.171618
    15  C   -0.476909
    16  H    0.140536
    17  H    0.188337
    18  H    0.200377
    19  N   -0.610352
    20  H    0.379037
    21  C   -0.072221
    22  H    0.189371
    23  C    0.632446
    24  C   -0.079731
    25  H    0.151686
    26  O   -0.564532
    27  C   -0.282487
    28  H    0.162005
    29  H    0.153561
    30  C   -0.461810
    31  H    0.168642
    32  H    0.134142
    33  H    0.164023
    34  C   -0.462829
    35  H    0.175508
    36  H    0.143482
    37  H    0.152946
    38  N   -0.625586
    39  H    0.379567
    40  C   -0.056330
    41  H    0.180097
    42  C    0.630652
    43  C   -0.345640
    44  H    0.153848
    45  H    0.167625
    46  O   -0.560575
    47  C    0.157756
    48  C   -0.195210
    49  H    0.120188
    50  C   -0.209644
    51  H    0.116703
    52  C   -0.154851
    53  H    0.190623
    54  C   -0.111181
    55  H    0.129099
    56  C   -0.150108
    57  H    0.186264
    58  N   -0.599324
    59  H    0.368499
    60  C   -0.067339
    61  H    0.167237
    62  C    0.648925
    63  C   -0.250802
    64  H    0.144330
    65  H    0.151903
    66  O   -0.549111
    67  C   -0.068001
    68  H    0.124455
    69  C   -0.442715
    70  H    0.143381
    71  H    0.140514
    72  H    0.139809
    73  C   -0.463179
    74  H    0.133034
    75  H    0.135909
    76  H    0.176865
    77  N   -0.615225
    78  H    0.333964
    79  C   -0.060568
    80  H    0.217093
    81  C    0.650704
    82  C   -0.307951
    83  H    0.142812
    84  H    0.167530
    85  O   -0.580258
    86  C   -0.346446
    87  H    0.155128
    88  H    0.131844
    89  C    0.590090
    90  O   -0.641398
    91  O   -0.538952
    92  N   -0.648890
    93  H    0.395297
    94  C   -0.046286
    95  H    0.192317
    96  C    0.633253
    97  C   -0.353447
    98  H    0.200960
    99  H    0.187353
   100  O   -0.588742
   101  C    0.576976
   102  N   -0.745747
   103  H    0.330202
   104  H    0.410815
   105  O   -0.568315
   106  N   -0.668340
   107  H    0.426684
   108  C   -0.004172
   109  H    0.146635
   110  C    0.641308
   111  C   -0.403080
   112  H    0.198174
   113  H    0.178801
   114  O   -0.542412
   115  C    0.151257
   116  C   -0.186513
   117  H    0.152211
   118  C   -0.204590
   119  H    0.136248
   120  C   -0.162633
   121  H    0.148182
   122  C   -0.163203
   123  H    0.129716
   124  O   -0.663845
   125  H    0.416704
   126  C    0.333971
   127  N   -0.613041
   128  H    0.350603
   129  C   -0.017216
   130  H    0.198549
   131  C    0.591889
   132  C   -0.285709
   133  H    0.148510
   134  H    0.163289
   135  O   -0.484174
   136  C   -0.292949
   137  H    0.130186
   138  H    0.208321
   139  C   -0.181332
   140  H    0.223827
   141  H    0.143833
   142  N   -0.602460
   143  H    0.403569
   144  N   -0.760528
   145  H    0.359280
   146  H    0.371024
   147  N   -0.799205
   148  H    0.348765
   149  H    0.430235
   150  C    0.791992
   151  O   -0.574272
   152  H    0.429089
 Sum of Mulliken charges =   1.00000

 Dipole moment (field-independent basis, Debye):
    X=            -23.8344    Y=             22.5281    Z=              1.8361  Tot=             32.8476
 Quadrupole moment (field-independent basis, Debye-Ang):
   XX=             41.0617   YY=           -319.3732   ZZ=           -107.3362
   XY=           -169.9231   XZ=           -343.2170   YZ=            122.6775

 Normal termination of Gaussian 16 at Mon Aug 15 06:23:49 2022.
