 Gaussian 16, Revision C.01,
 Gaussian 16:  ES64L-G16RevC.01  3-Jul-2019

 ----------------------------------------------------------------------
 # B3LYP/6-31G* empiricaldispersion=gd3bj guess=read geom=check nosymm
 integral(ultrafinegrid)
 ----------------------------------------------------------------------

 ------------------------------------------------------
 Candidate Structure: Conf:102 Charge calc in gas phase
 ------------------------------------------------------
 Structure from the checkpoint file:  "conf-102.chk"
 Charge =  1 Multiplicity = 1

                          Input orientation:
 ---------------------------------------------------------------------
 Center     Atomic      Atomic             Coordinates (Angstroms)
 Number     Number       Type             X           Y           Z
 ---------------------------------------------------------------------
      1          7           0       -5.481293   -1.828324    7.657293
      2          1           0       -6.437115   -2.136676    7.463539
      3          1           0       -4.791640   -2.488514    7.159635
      4          1           0       -5.340127   -1.810731    8.669266
      5          6           0       -5.127017   -0.519589    6.981145
      6          1           0       -6.052576   -0.007708    6.705898
      7          6           0       -4.355512   -1.029944    5.731534
      8          6           0       -4.284375    0.362277    7.930949
      9          1           0       -3.384326   -0.213340    8.191144
     10          8           0       -3.925615   -2.199482    5.783439
     11          6           0       -3.844893    1.660423    7.236686
     12          1           0       -4.711414    2.237577    6.891429
     13          1           0       -3.299686    2.284169    7.950452
     14          1           0       -3.190717    1.483167    6.381644
     15          6           0       -5.062759    0.696198    9.214164
     16          1           0       -5.979943    1.250115    8.982827
     17          1           0       -5.341974   -0.181638    9.812318
     18          1           0       -4.448825    1.324732    9.864996
     19          7           0       -4.218838   -0.192580    4.725850
     20          1           0       -4.562258    0.771895    4.745690
     21          6           0       -3.471056   -0.458824    3.493927
     22          1           0       -2.577280   -1.034761    3.742304
     23          6           0       -3.108390    0.954711    3.000003
     24          6           0       -4.358625   -1.261583    2.494312
     25          1           0       -4.846234   -2.024498    3.117944
     26          8           0       -3.795954    1.914447    3.389679
     27          6           0       -3.542762   -2.006632    1.425406
     28          1           0       -2.952930   -1.296669    0.840355
     29          1           0       -4.269353   -2.456699    0.735783
     30          6           0       -5.440456   -0.379873    1.858738
     31          1           0       -4.995777    0.326641    1.151385
     32          1           0       -6.002385    0.192586    2.605144
     33          1           0       -6.150794   -1.005408    1.308109
     34          6           0       -2.625116   -3.098529    1.979201
     35          1           0       -2.221648   -3.704500    1.161732
     36          1           0       -1.761566   -2.676292    2.499080
     37          1           0       -3.163696   -3.766948    2.663139
     38          7           0       -2.061182    1.050437    2.180628
     39          1           0       -1.531417    0.218038    1.852344
     40          6           0       -1.777454    2.265400    1.445013
     41          1           0       -2.285582    3.091600    1.951554
     42          6           0       -2.424457    2.132731    0.042989
     43          6           0       -0.233068    2.481864    1.486872
     44          1           0        0.240210    1.520165    1.270005
     45          1           0        0.000859    2.747488    2.524363
     46          8           0       -3.051165    1.122216   -0.283522
     47          6           0        0.313657    3.517213    0.536227
     48          6           0        0.967743    3.090174   -0.624072
     49          1           0        1.118162    2.024392   -0.766701
     50          6           0        0.113717    4.893619    0.731731
     51          1           0       -0.378692    5.242657    1.636865
     52          6           0        1.364219    4.006986   -1.595687
     53          1           0        1.814906    3.614661   -2.501938
     54          6           0        0.518447    5.815321   -0.235425
     55          1           0        0.345012    6.876114   -0.079361
     56          6           0        1.131486    5.372497   -1.412846
     57          1           0        1.398466    6.097008   -2.179926
     58          7           0       -2.322675    3.208545   -0.779977
     59          1           0       -1.675663    3.947388   -0.533051
     60          6           0       -2.750843    3.157069   -2.183319
     61          1           0       -3.710467    2.635826   -2.203869
     62          6           0       -1.686325    2.328726   -2.924252
     63          6           0       -2.881624    4.572570   -2.736602
     64          1           0       -1.913307    5.075438   -2.622964
     65          1           0       -3.607430    5.111070   -2.113284
     66          8           0       -0.706930    2.882081   -3.445829
     67          6           0       -3.311449    4.646789   -4.211678
     68          1           0       -2.533228    4.152831   -4.807232
     69          6           0       -4.644270    3.932162   -4.470371
     70          1           0       -5.439839    4.342294   -3.835084
     71          1           0       -4.581113    2.855202   -4.278711
     72          1           0       -4.954307    4.058176   -5.513339
     73          6           0       -3.384631    6.113500   -4.652672
     74          1           0       -4.157179    6.653491   -4.090735
     75          1           0       -3.631391    6.192742   -5.716997
     76          1           0       -2.430375    6.627555   -4.487877
     77          7           0       -1.870381    0.986209   -2.866563
     78          1           0       -2.654983    0.729559   -2.272914
     79          6           0       -0.772207   -0.000947   -2.767165
     80          1           0       -0.002249    0.438387   -2.112914
     81          6           0        0.038589   -0.298520   -4.029064
     82          6           0       -1.270327   -1.285018   -2.075462
     83          1           0       -1.542312   -2.029399   -2.829616
     84          1           0       -2.168778   -1.048256   -1.496423
     85          8           0        0.607962   -1.383210   -4.163325
     86          6           0       -0.228145   -1.882672   -1.106216
     87          1           0       -0.651994   -2.783103   -0.652769
     88          1           0        0.666119   -2.159810   -1.670478
     89          6           0        0.122416   -0.868727   -0.004991
     90          8           0        1.013686   -0.009220   -0.290259
     91          8           0       -0.539134   -0.921943    1.066261
     92          7           0        0.278743    0.762126   -4.858472
     93          1           0       -0.058075    1.661537   -4.492125
     94          6           0        1.591241    0.853740   -5.498060
     95          1           0        1.823310   -0.128735   -5.919012
     96          6           0        2.597987    1.212007   -4.387038
     97          6           0        1.557133    1.949901   -6.570930
     98          1           0        0.999250    1.583002   -7.439824
     99          1           0        1.022194    2.820243   -6.187002
    100          8           0        3.010432    2.370965   -4.243146
    101          6           0        2.917692    2.452076   -7.028107
    102          7           0        3.865748    1.518285   -7.257513
    103          1           0        4.797114    1.820222   -7.508911
    104          1           0        3.751831    0.552496   -6.986012
    105          8           0        3.128376    3.656857   -7.235383
    106          7           0        2.929734    0.222982   -3.542472
    107          1           0        2.488523   -0.686658   -3.643426
    108          6           0        3.739851    0.511772   -2.373408
    109          1           0        3.244561    1.287294   -1.778999
    110          6           0        5.113523    1.017658   -2.838614
    111          6           0        3.882593   -0.751637   -1.495560
    112          1           0        2.868286   -1.059218   -1.225173
    113          1           0        4.369727   -1.538894   -2.081381
    114          8           0        5.673574    0.547350   -3.819377
    115          6           0        4.680988   -0.407151   -0.263711
    116          6           0        6.059497   -0.642929   -0.202069
    117          1           0        6.540274   -1.219172   -0.988588
    118          6           0        4.073365    0.320539    0.768612
    119          1           0        2.994742    0.461625    0.747199
    120          6           0        6.836332   -0.111440    0.824020
    121          1           0        7.910818   -0.253806    0.852497
    122          6           0        4.844190    0.874693    1.789638
    123          1           0        4.372823    1.476106    2.565026
    124          8           0        7.059696    1.361701    2.662301
    125          1           0        6.522786    1.749594    3.371651
    126          6           0        6.228572    0.693121    1.788307
    127          7           0        5.666277    2.027436   -2.081474
    128          1           0        5.282836    2.158516   -1.150665
    129          6           0        7.101645    2.311838   -2.217907
    130          1           0        7.558683    1.472856   -2.746604
    131          6           0        7.778260    2.398206   -0.857868
    132          6           0        7.343534    3.607245   -3.017625
    133          1           0        6.863841    4.434906   -2.479414
    134          1           0        8.416790    3.827831   -3.016168
    135          8           0        8.897388    2.007242   -0.633093
    136          6           0        6.815496    3.501699   -4.464761
    137          1           0        7.619294    3.124813   -5.105147
    138          1           0        6.022583    2.752517   -4.521180
    139          6           0        6.268159    4.829515   -5.040981
    140          1           0        6.455225    5.664078   -4.357832
    141          1           0        6.750062    5.078343   -5.988903
    142          7           0        4.829375    4.807636   -5.324407
    143          1           0        4.504964    4.511255   -6.248094
    144          7           0        4.194812    4.957023   -3.097335
    145          1           0        3.429794    5.090089   -2.446103
    146          1           0        4.834179    4.223954   -2.801387
    147          7           0        2.606422    5.185635   -4.808576
    148          1           0        1.882408    4.783900   -4.223375
    149          1           0        2.445289    5.012728   -5.801068
    150          6           0        3.874731    4.944077   -4.411652
    151          8           0        6.989965    3.004381    0.062636
    152          1           0        7.407494    2.870472    0.939395
 ---------------------------------------------------------------------

 SCF Done:  E(RB3LYP) =  -3587.00048358     A.U. after    3 cycles

 Alpha  occ. eigenvalues --  -19.25809 -19.24497 -19.24181 -19.20730 -19.20016
 Alpha  occ. eigenvalues --  -19.19648 -19.19590 -19.18671 -19.18402 -19.18375
 Alpha  occ. eigenvalues --  -19.18162 -19.12487 -19.12264 -14.57754 -14.46687
 Alpha  occ. eigenvalues --  -14.45756 -14.45138 -14.44821 -14.44510 -14.42847
 Alpha  occ. eigenvalues --  -14.42824 -14.42746 -14.42228 -14.41161 -14.40787
 Alpha  occ. eigenvalues --  -10.41673 -10.41048 -10.38693 -10.38352 -10.38281
 Alpha  occ. eigenvalues --  -10.36036 -10.35761 -10.35498 -10.35312 -10.35193
 Alpha  occ. eigenvalues --  -10.34905 -10.33122 -10.31262 -10.31032 -10.30584
 Alpha  occ. eigenvalues --  -10.30305 -10.30300 -10.30245 -10.30109 -10.29807
 Alpha  occ. eigenvalues --  -10.29599 -10.29590 -10.28507 -10.28474 -10.27733
 Alpha  occ. eigenvalues --  -10.26620 -10.26315 -10.26235 -10.26168 -10.25986
 Alpha  occ. eigenvalues --  -10.25801 -10.25783 -10.25349 -10.24541 -10.24490
 Alpha  occ. eigenvalues --  -10.24456 -10.24447 -10.24399 -10.24284 -10.24264
 Alpha  occ. eigenvalues --  -10.24205 -10.23692 -10.23669 -10.23420 -10.22690
 Alpha  occ. eigenvalues --  -10.22580 -10.22447 -10.21816 -10.21000 -10.20750
 Alpha  occ. eigenvalues --   -1.17085  -1.16632  -1.12374  -1.11772  -1.11663
 Alpha  occ. eigenvalues --   -1.11635  -1.11314  -1.10556  -1.10494  -1.10192
 Alpha  occ. eigenvalues --   -1.09869  -1.09660  -1.07789  -1.05312  -1.03486
 Alpha  occ. eigenvalues --   -1.00025  -0.99816  -0.99586  -0.99476  -0.99320
 Alpha  occ. eigenvalues --   -0.98972  -0.98557  -0.98474  -0.98253  -0.96437
 Alpha  occ. eigenvalues --   -0.93758  -0.92420  -0.90892  -0.87851  -0.87562
 Alpha  occ. eigenvalues --   -0.87212  -0.86145  -0.85070  -0.84754  -0.84431
 Alpha  occ. eigenvalues --   -0.83774  -0.82348  -0.81303  -0.81169  -0.80226
 Alpha  occ. eigenvalues --   -0.80070  -0.80039  -0.79042  -0.78262  -0.76769
 Alpha  occ. eigenvalues --   -0.76473  -0.76188  -0.74213  -0.73613  -0.73365
 Alpha  occ. eigenvalues --   -0.72378  -0.72179  -0.71946  -0.71327  -0.70661
 Alpha  occ. eigenvalues --   -0.69910  -0.68753  -0.68543  -0.68503  -0.67700
 Alpha  occ. eigenvalues --   -0.67583  -0.67460  -0.67159  -0.67018  -0.66404
 Alpha  occ. eigenvalues --   -0.66306  -0.65872  -0.64950  -0.64587  -0.64281
 Alpha  occ. eigenvalues --   -0.64195  -0.63818  -0.63620  -0.63543  -0.63229
 Alpha  occ. eigenvalues --   -0.62437  -0.62186  -0.61444  -0.61357  -0.60410
 Alpha  occ. eigenvalues --   -0.59752  -0.59643  -0.59228  -0.59101  -0.58271
 Alpha  occ. eigenvalues --   -0.57802  -0.57550  -0.57382  -0.56982  -0.56889
 Alpha  occ. eigenvalues --   -0.56284  -0.55998  -0.55465  -0.55063  -0.54846
 Alpha  occ. eigenvalues --   -0.54739  -0.54257  -0.54070  -0.53886  -0.53854
 Alpha  occ. eigenvalues --   -0.53657  -0.53472  -0.53186  -0.53015  -0.52897
 Alpha  occ. eigenvalues --   -0.52689  -0.52391  -0.52195  -0.51827  -0.51423
 Alpha  occ. eigenvalues --   -0.51330  -0.51159  -0.51024  -0.50843  -0.50431
 Alpha  occ. eigenvalues --   -0.50131  -0.49937  -0.49859  -0.49599  -0.49185
 Alpha  occ. eigenvalues --   -0.49046  -0.48830  -0.48583  -0.48503  -0.48408
 Alpha  occ. eigenvalues --   -0.48338  -0.47986  -0.47949  -0.47720  -0.47510
 Alpha  occ. eigenvalues --   -0.47296  -0.47110  -0.46885  -0.46807  -0.46663
 Alpha  occ. eigenvalues --   -0.46540  -0.46368  -0.46274  -0.46174  -0.45905
 Alpha  occ. eigenvalues --   -0.45849  -0.45745  -0.45550  -0.45335  -0.45261
 Alpha  occ. eigenvalues --   -0.44927  -0.44643  -0.44440  -0.44378  -0.44169
 Alpha  occ. eigenvalues --   -0.44005  -0.43826  -0.43737  -0.43350  -0.43006
 Alpha  occ. eigenvalues --   -0.42941  -0.42375  -0.42332  -0.42016  -0.41890
 Alpha  occ. eigenvalues --   -0.41734  -0.41542  -0.41419  -0.41275  -0.41188
 Alpha  occ. eigenvalues --   -0.40708  -0.40422  -0.40354  -0.40287  -0.39860
 Alpha  occ. eigenvalues --   -0.39577  -0.39160  -0.38581  -0.38495  -0.38402
 Alpha  occ. eigenvalues --   -0.38176  -0.37999  -0.37955  -0.37856  -0.37788
 Alpha  occ. eigenvalues --   -0.37622  -0.37377  -0.36708  -0.35826  -0.35685
 Alpha  occ. eigenvalues --   -0.35255  -0.35216  -0.34932  -0.34783  -0.34512
 Alpha  occ. eigenvalues --   -0.34143  -0.33485  -0.32733  -0.32483  -0.32409
 Alpha  occ. eigenvalues --   -0.32010  -0.31944  -0.31624  -0.31470  -0.30808
 Alpha  occ. eigenvalues --   -0.30582  -0.30433  -0.30044  -0.28027  -0.27399
 Alpha  occ. eigenvalues --   -0.26572  -0.26170
 Alpha virt. eigenvalues --   -0.10194  -0.09345  -0.08150  -0.07736  -0.07641
 Alpha virt. eigenvalues --   -0.06971  -0.06373  -0.06160  -0.06079  -0.05616
 Alpha virt. eigenvalues --   -0.05004  -0.04871  -0.04345  -0.04085  -0.04021

 Mulliken charges:
               1
     1  N   -0.763758
     2  H    0.411103
     3  H    0.433738
     4  H    0.404053
     5  C   -0.100152
     6  H    0.201588
     7  C    0.653281
     8  C   -0.107882
     9  H    0.167261
    10  O   -0.555779
    11  C   -0.474424
    12  H    0.167168
    13  H    0.180457
    14  H    0.190910
    15  C   -0.469834
    16  H    0.174033
    17  H    0.135681
    18  H    0.196728
    19  N   -0.602580
    20  H    0.376372
    21  C   -0.080279
    22  H    0.196517
    23  C    0.634414
    24  C   -0.069891
    25  H    0.129370
    26  O   -0.582467
    27  C   -0.282403
    28  H    0.195505
    29  H    0.127553
    30  C   -0.476924
    31  H    0.191750
    32  H    0.125376
    33  H    0.147472
    34  C   -0.449612
    35  H    0.150275
    36  H    0.168633
    37  H    0.125182
    38  N   -0.621926
    39  H    0.432209
    40  C   -0.099109
    41  H    0.191521
    42  C    0.641818
    43  C   -0.386092
    44  H    0.229211
    45  H    0.151622
    46  O   -0.538518
    47  C    0.101466
    48  C   -0.218728
    49  H    0.231649
    50  C   -0.210220
    51  H    0.137069
    52  C   -0.152368
    53  H    0.154092
    54  C   -0.130646
    55  H    0.145869
    56  C   -0.171637
    57  H    0.133661
    58  N   -0.614234
    59  H    0.361204
    60  C   -0.058125
    61  H    0.179106
    62  C    0.636962
    63  C   -0.276754
    64  H    0.149507
    65  H    0.144209
    66  O   -0.576449
    67  C   -0.081764
    68  H    0.140469
    69  C   -0.452737
    70  H    0.145140
    71  H    0.143698
    72  H    0.153235
    73  C   -0.444634
    74  H    0.144633
    75  H    0.149590
    76  H    0.138690
    77  N   -0.615705
    78  H    0.376192
    79  C   -0.077125
    80  H    0.225406
    81  C    0.598972
    82  C   -0.322148
    83  H    0.165875
    84  H    0.169715
    85  O   -0.532179
    86  C   -0.336185
    87  H    0.149077
    88  H    0.154852
    89  C    0.585665
    90  O   -0.583021
    91  O   -0.596189
    92  N   -0.616900
    93  H    0.392154
    94  C   -0.084581
    95  H    0.180501
    96  C    0.644707
    97  C   -0.357344
    98  H    0.200319
    99  H    0.177313
   100  O   -0.588268
   101  C    0.631166
   102  N   -0.716683
   103  H    0.355200
   104  H    0.365377
   105  O   -0.573220
   106  N   -0.616726
   107  H    0.381679
   108  C   -0.025215
   109  H    0.175771
   110  C    0.642128
   111  C   -0.405726
   112  H    0.216113
   113  H    0.160522
   114  O   -0.534912
   115  C    0.117117
   116  C   -0.192820
   117  H    0.146143
   118  C   -0.214605
   119  H    0.199856
   120  C   -0.174751
   121  H    0.166778
   122  C   -0.193052
   123  H    0.122998
   124  O   -0.654898
   125  H    0.412495
   126  C    0.331549
   127  N   -0.639164
   128  H    0.362474
   129  C   -0.034591
   130  H    0.207118
   131  C    0.589104
   132  C   -0.304559
   133  H    0.150027
   134  H    0.179222
   135  O   -0.451423
   136  C   -0.314491
   137  H    0.166649
   138  H    0.205268
   139  C   -0.167418
   140  H    0.189599
   141  H    0.179450
   142  N   -0.592928
   143  H    0.389874
   144  N   -0.767660
   145  H    0.364862
   146  H    0.395889
   147  N   -0.760166
   148  H    0.379984
   149  H    0.382196
   150  C    0.748684
   151  O   -0.595034
   152  H    0.432520
 Sum of Mulliken charges =   1.00000

 Dipole moment (field-independent basis, Debye):
    X=             -9.7783    Y=              9.4852    Z=             14.6215  Tot=             19.9843
 Quadrupole moment (field-independent basis, Debye-Ang):
   XX=           -304.3887   YY=           -386.6812   ZZ=           -155.4294
   XY=             59.2162   XZ=           -177.9941   YZ=            -54.9181

 Normal termination of Gaussian 16 at Mon Aug 15 06:28:47 2022.
