 Gaussian 16, Revision C.01,
 Gaussian 16:  ES64L-G16RevC.01  3-Jul-2019

 ----------------------------------------------------------------------
 # B3LYP/6-31G* empiricaldispersion=gd3bj guess=read geom=check nosymm
 integral(ultrafinegrid)
 ----------------------------------------------------------------------

 -----------------------------------------------------
 Candidate Structure: Conf:34 Charge calc in gas phase
 -----------------------------------------------------
 Structure from the checkpoint file:  "conf-34.chk"
 Charge =  1 Multiplicity = 1

                          Input orientation:
 ---------------------------------------------------------------------
 Center     Atomic      Atomic             Coordinates (Angstroms)
 Number     Number       Type             X           Y           Z
 ---------------------------------------------------------------------
      1          7           0       -6.783448    0.412893    5.049602
      2          1           0       -7.198040   -0.280155    4.382668
      3          1           0       -5.879453    0.004430    5.352025
      4          1           0       -7.372528    0.531307    5.874143
      5          6           0       -6.595222    1.676093    4.241030
      6          1           0       -7.324719    2.411943    4.596658
      7          6           0       -6.969111    1.217583    2.812259
      8          6           0       -5.152926    2.199468    4.457035
      9          1           0       -4.443894    1.421026    4.159366
     10          8           0       -7.287490    0.035577    2.628743
     11          6           0       -4.803241    3.449246    3.637596
     12          1           0       -5.558099    4.242183    3.741278
     13          1           0       -3.854253    3.832926    4.017162
     14          1           0       -4.630086    3.223825    2.582259
     15          6           0       -4.920042    2.486143    5.948275
     16          1           0       -5.527346    3.332696    6.293778
     17          1           0       -5.133437    1.627280    6.596739
     18          1           0       -3.861947    2.721144    6.077469
     19          7           0       -6.916768    2.128764    1.825640
     20          1           0       -6.508700    3.028090    2.049780
     21          6           0       -6.692195    1.680337    0.433239
     22          1           0       -7.383833    0.856030    0.243863
     23          6           0       -5.230491    1.199551    0.464446
     24          6           0       -6.928091    2.813737   -0.569060
     25          1           0       -6.242690    3.629578   -0.299251
     26          8           0       -4.315900    2.032179    0.456797
     27          6           0       -8.377279    3.324474   -0.486276
     28          1           0       -8.629918    3.520682    0.563394
     29          1           0       -9.055142    2.524990   -0.817353
     30          6           0       -6.553049    2.329772   -1.976436
     31          1           0       -7.180704    1.482777   -2.280684
     32          1           0       -5.505417    2.018841   -2.023824
     33          1           0       -6.690966    3.126551   -2.711493
     34          6           0       -8.633393    4.592570   -1.304746
     35          1           0       -9.657672    4.948875   -1.155486
     36          1           0       -7.952282    5.398513   -1.006032
     37          1           0       -8.498764    4.422595   -2.377519
     38          7           0       -5.054712   -0.124313    0.646902
     39          1           0       -5.888629   -0.691040    0.728364
     40          6           0       -3.806401   -0.715172    1.161446
     41          1           0       -3.363138    0.000923    1.862917
     42          6           0       -2.742770   -0.885241    0.054292
     43          6           0       -4.099953   -2.043344    1.866276
     44          1           0       -3.192873   -2.650340    1.778621
     45          1           0       -4.867633   -2.602043    1.315835
     46          8           0       -2.332807   -1.976951   -0.326550
     47          6           0       -4.474607   -1.931382    3.330318
     48          6           0       -3.696416   -1.159006    4.205439
     49          1           0       -2.875809   -0.557143    3.823160
     50          6           0       -5.539364   -2.673649    3.860740
     51          1           0       -6.157532   -3.271035    3.195424
     52          6           0       -3.958678   -1.155178    5.579065
     53          1           0       -3.329953   -0.549900    6.225692
     54          6           0       -5.798148   -2.684337    5.234210
     55          1           0       -6.608295   -3.293819    5.625512
     56          6           0       -4.999597   -1.932551    6.104416
     57          1           0       -5.179816   -1.959910    7.176104
     58          7           0       -2.279498    0.308366   -0.393786
     59          1           0       -2.726709    1.147720   -0.024912
     60          6           0       -1.200918    0.439894   -1.340927
     61          1           0       -0.903638   -0.577170   -1.615482
     62          6           0        0.033859    1.100166   -0.721046
     63          6           0       -1.647037    1.213718   -2.596652
     64          1           0       -0.802884    1.262006   -3.294014
     65          1           0       -1.871836    2.249258   -2.305766
     66          8           0        1.028505    1.350904   -1.448718
     67          6           0       -2.871610    0.605144   -3.297101
     68          1           0       -3.691150    0.578684   -2.565798
     69          6           0       -3.306022    1.502121   -4.462129
     70          1           0       -2.522309    1.558134   -5.228489
     71          1           0       -3.516111    2.524036   -4.124471
     72          1           0       -4.210710    1.112316   -4.941965
     73          6           0       -2.616641   -0.832872   -3.767017
     74          1           0       -1.748282   -0.874530   -4.438497
     75          1           0       -3.480196   -1.215374   -4.322712
     76          1           0       -2.436004   -1.512203   -2.928288
     77          7           0        0.015305    1.371213    0.581454
     78          1           0       -0.750564    1.052917    1.224679
     79          6           0        1.138778    2.016845    1.254497
     80          1           0        1.129949    3.085185    1.000482
     81          6           0        2.451225    1.397607    0.753281
     82          6           0        1.031220    1.858068    2.781006
     83          1           0        1.941727    2.302587    3.201037
     84          1           0        1.057588    0.789236    3.015453
     85          8           0        2.626234    0.173991    0.808878
     86          6           0       -0.196499    2.523174    3.433087
     87          1           0        0.051385    2.845331    4.448179
     88          1           0       -0.467491    3.436428    2.882904
     89          6           0       -1.458456    1.638607    3.532074
     90          8           0       -2.222124    1.826393    4.501662
     91          8           0       -1.632966    0.777370    2.603969
     92          7           0        3.384033    2.286021    0.318283
     93          1           0        3.032586    3.244536    0.252954
     94          6           0        4.269903    2.058790   -0.830627
     95          1           0        3.641498    1.827055   -1.700963
     96          6           0        5.314045    0.931815   -0.786055
     97          6           0        5.027799    3.370930   -1.122338
     98          1           0        5.598101    3.653010   -0.228120
     99          1           0        5.740513    3.169652   -1.923054
    100          8           0        6.140607    0.867922   -1.703557
    101          6           0        4.102385    4.532736   -1.463579
    102          7           0        4.478635    5.289433   -2.524234
    103          1           0        3.948658    6.126478   -2.727652
    104          1           0        5.353037    5.144151   -3.005439
    105          8           0        3.083019    4.779787   -0.817437
    106          7           0        5.305472    0.054090    0.241868
    107          1           0        4.424902   -0.053736    0.755994
    108          6           0        6.292894   -1.010597    0.231715
    109          1           0        7.266116   -0.545494    0.051666
    110          6           0        6.011617   -2.012540   -0.897451
    111          6           0        6.351695   -1.776646    1.569538
    112          1           0        6.532066   -1.054554    2.372858
    113          1           0        5.384829   -2.256829    1.751942
    114          8           0        4.937322   -2.636093   -0.947542
    115          6           0        7.462883   -2.795738    1.462464
    116          6           0        7.202832   -4.098869    1.018512
    117          1           0        6.174718   -4.435482    0.922530
    118          6           0        8.795985   -2.389059    1.584755
    119          1           0        9.022445   -1.389337    1.948131
    120          6           0        8.235985   -4.948637    0.634663
    121          1           0        8.035816   -5.939025    0.241850
    122          6           0        9.841584   -3.224234    1.198354
    123          1           0       10.871190   -2.878205    1.258874
    124          8           0       10.516169   -5.280808    0.098830
    125          1           0       11.394483   -4.950906    0.348286
    126          6           0        9.551954   -4.485903    0.676436
    127          7           0        6.983095   -2.175093   -1.812191
    128          1           0        7.837242   -1.645393   -1.698360
    129          6           0        6.983937   -3.219873   -2.829546
    130          1           0        6.045098   -3.766433   -2.735320
    131          6           0        8.073789   -4.250782   -2.527181
    132          6           0        7.152059   -2.645581   -4.255173
    133          1           0        7.857253   -1.806862   -4.210057
    134          1           0        7.627548   -3.414938   -4.874267
    135          8           0        7.902171   -5.443799   -2.585795
    136          6           0        5.867997   -2.221220   -4.991270
    137          1           0        6.175967   -1.915325   -5.997354
    138          1           0        5.213764   -3.091656   -5.126674
    139          6           0        5.031074   -1.071735   -4.406346
    140          1           0        5.665952   -0.290016   -3.969153
    141          1           0        4.458750   -0.626846   -5.227755
    142          7           0        4.083966   -1.561274   -3.400574
    143          1           0        4.426116   -2.278474   -2.762028
    144          7           0        2.621564    0.277843   -3.448416
    145          1           0        1.858962    0.777826   -2.975602
    146          1           0        2.833448    0.472768   -4.413494
    147          7           0        2.606418   -1.188803   -1.667251
    148          1           0        2.010697   -0.529578   -1.176440
    149          1           0        3.193346   -1.776794   -1.077615
    150          6           0        3.113128   -0.814257   -2.845718
    151          8           0        9.247826   -3.664510   -2.212080
    152          1           0        9.851464   -4.370911   -1.897221
 ---------------------------------------------------------------------

 SCF Done:  E(RB3LYP) =  -3587.02282884     A.U. after    3 cycles

 Alpha  occ. eigenvalues --  -19.26495 -19.25102 -19.24067 -19.21063 -19.20831
 Alpha  occ. eigenvalues --  -19.20035 -19.19607 -19.19348 -19.19253 -19.18979
 Alpha  occ. eigenvalues --  -19.16731 -19.13099 -19.12028 -14.54234 -14.46919
 Alpha  occ. eigenvalues --  -14.45311 -14.45073 -14.44973 -14.44306 -14.43891
 Alpha  occ. eigenvalues --  -14.43149 -14.42719 -14.41930 -14.40992 -14.40209
 Alpha  occ. eigenvalues --  -10.41139 -10.40591 -10.39057 -10.37738 -10.37286
 Alpha  occ. eigenvalues --  -10.36853 -10.36350 -10.36090 -10.36013 -10.35153
 Alpha  occ. eigenvalues --  -10.33708 -10.32015 -10.32011 -10.31514 -10.31452
 Alpha  occ. eigenvalues --  -10.31438 -10.31188 -10.30625 -10.29183 -10.28738
 Alpha  occ. eigenvalues --  -10.28630 -10.28189 -10.27845 -10.27756 -10.27679
 Alpha  occ. eigenvalues --  -10.26939 -10.26779 -10.26640 -10.26608 -10.26586
 Alpha  occ. eigenvalues --  -10.26213 -10.26040 -10.25868 -10.25805 -10.25737
 Alpha  occ. eigenvalues --  -10.25360 -10.25347 -10.25172 -10.25135 -10.24883
 Alpha  occ. eigenvalues --  -10.24793 -10.24686 -10.24391 -10.24186 -10.24113
 Alpha  occ. eigenvalues --  -10.24084 -10.23709 -10.22534 -10.22255 -10.21890
 Alpha  occ. eigenvalues --   -1.17435  -1.16312  -1.12988  -1.12749  -1.11900
 Alpha  occ. eigenvalues --   -1.11695  -1.11256  -1.10896  -1.10030  -1.09537
 Alpha  occ. eigenvalues --   -1.09144  -1.08576  -1.08433  -1.05696  -1.03629
 Alpha  occ. eigenvalues --   -1.01835  -1.00445  -0.99970  -0.99794  -0.99358
 Alpha  occ. eigenvalues --   -0.98905  -0.98529  -0.97578  -0.97247  -0.96510
 Alpha  occ. eigenvalues --   -0.92786  -0.92314  -0.90542  -0.88799  -0.88647
 Alpha  occ. eigenvalues --   -0.86895  -0.86576  -0.85803  -0.85711  -0.83971
 Alpha  occ. eigenvalues --   -0.83625  -0.82869  -0.81745  -0.81416  -0.81280
 Alpha  occ. eigenvalues --   -0.80452  -0.79866  -0.79192  -0.77118  -0.77077
 Alpha  occ. eigenvalues --   -0.76833  -0.76161  -0.74877  -0.73203  -0.72883
 Alpha  occ. eigenvalues --   -0.72600  -0.72080  -0.71306  -0.70107  -0.69843
 Alpha  occ. eigenvalues --   -0.69400  -0.69328  -0.69056  -0.68930  -0.68705
 Alpha  occ. eigenvalues --   -0.68656  -0.67420  -0.67282  -0.67091  -0.66848
 Alpha  occ. eigenvalues --   -0.66692  -0.65615  -0.65532  -0.65002  -0.64606
 Alpha  occ. eigenvalues --   -0.64282  -0.63919  -0.63773  -0.63524  -0.63191
 Alpha  occ. eigenvalues --   -0.61912  -0.61819  -0.61327  -0.61141  -0.60907
 Alpha  occ. eigenvalues --   -0.59860  -0.59288  -0.59183  -0.58921  -0.58596
 Alpha  occ. eigenvalues --   -0.58235  -0.58027  -0.57962  -0.57505  -0.56859
 Alpha  occ. eigenvalues --   -0.56503  -0.56229  -0.55869  -0.55692  -0.55255
 Alpha  occ. eigenvalues --   -0.54960  -0.54826  -0.54664  -0.54353  -0.54095
 Alpha  occ. eigenvalues --   -0.53695  -0.53640  -0.53500  -0.52984  -0.52572
 Alpha  occ. eigenvalues --   -0.52472  -0.52218  -0.51897  -0.51862  -0.51849
 Alpha  occ. eigenvalues --   -0.51514  -0.50976  -0.50827  -0.50722  -0.50651
 Alpha  occ. eigenvalues --   -0.50031  -0.49960  -0.49717  -0.49520  -0.49371
 Alpha  occ. eigenvalues --   -0.49234  -0.49146  -0.49008  -0.48763  -0.48608
 Alpha  occ. eigenvalues --   -0.48377  -0.48074  -0.48008  -0.47928  -0.47868
 Alpha  occ. eigenvalues --   -0.47580  -0.47499  -0.47407  -0.47317  -0.47199
 Alpha  occ. eigenvalues --   -0.46986  -0.46714  -0.46601  -0.46420  -0.46292
 Alpha  occ. eigenvalues --   -0.45802  -0.45647  -0.45419  -0.45369  -0.45192
 Alpha  occ. eigenvalues --   -0.45031  -0.44639  -0.44530  -0.44266  -0.44069
 Alpha  occ. eigenvalues --   -0.43913  -0.43567  -0.43470  -0.43373  -0.43236
 Alpha  occ. eigenvalues --   -0.43040  -0.42925  -0.42846  -0.42812  -0.42636
 Alpha  occ. eigenvalues --   -0.42397  -0.42260  -0.41922  -0.41872  -0.41689
 Alpha  occ. eigenvalues --   -0.41266  -0.41000  -0.40497  -0.40483  -0.40473
 Alpha  occ. eigenvalues --   -0.40288  -0.40184  -0.39823  -0.39561  -0.39438
 Alpha  occ. eigenvalues --   -0.39326  -0.38664  -0.38192  -0.38017  -0.37937
 Alpha  occ. eigenvalues --   -0.37610  -0.37512  -0.37379  -0.37095  -0.36311
 Alpha  occ. eigenvalues --   -0.36071  -0.35021  -0.34809  -0.34742  -0.34520
 Alpha  occ. eigenvalues --   -0.34024  -0.33902  -0.33271  -0.33109  -0.32925
 Alpha  occ. eigenvalues --   -0.32629  -0.32515  -0.31891  -0.31869  -0.31607
 Alpha  occ. eigenvalues --   -0.31356  -0.29850  -0.29610  -0.28675  -0.28367
 Alpha  occ. eigenvalues --   -0.27595  -0.26064
 Alpha virt. eigenvalues --   -0.10361  -0.08049  -0.08002  -0.07788  -0.06790
 Alpha virt. eigenvalues --   -0.06573  -0.06329  -0.06190  -0.06118  -0.05561
 Alpha virt. eigenvalues --   -0.05460  -0.05448  -0.05006  -0.04264  -0.03108

 Mulliken charges:
               1
     1  N   -0.785812
     2  H    0.428079
     3  H    0.426489
     4  H    0.397304
     5  C   -0.097712
     6  H    0.195357
     7  C    0.639407
     8  C   -0.106008
     9  H    0.220035
    10  O   -0.545482
    11  C   -0.516006
    12  H    0.128656
    13  H    0.204530
    14  H    0.189365
    15  C   -0.472900
    16  H    0.142401
    17  H    0.114103
    18  H    0.229405
    19  N   -0.591523
    20  H    0.361783
    21  C   -0.054465
    22  H    0.173903
    23  C    0.629691
    24  C   -0.094086
    25  H    0.147866
    26  O   -0.555642
    27  C   -0.258957
    28  H    0.136250
    29  H    0.139852
    30  C   -0.487243
    31  H    0.147412
    32  H    0.180980
    33  H    0.167961
    34  C   -0.451228
    35  H    0.157768
    36  H    0.147254
    37  H    0.157371
    38  N   -0.592470
    39  H    0.352131
    40  C   -0.106611
    41  H    0.255391
    42  C    0.636507
    43  C   -0.398744
    44  H    0.217059
    45  H    0.148414
    46  O   -0.528005
    47  C    0.162435
    48  C   -0.196818
    49  H    0.234784
    50  C   -0.194173
    51  H    0.141413
    52  C   -0.193951
    53  H    0.171852
    54  C   -0.150857
    55  H    0.145974
    56  C   -0.189280
    57  H    0.145457
    58  N   -0.640529
    59  H    0.382923
    60  C   -0.067940
    61  H    0.198386
    62  C    0.645723
    63  C   -0.259368
    64  H    0.135897
    65  H    0.139453
    66  O   -0.623440
    67  C   -0.075199
    68  H    0.135011
    69  C   -0.443597
    70  H    0.137885
    71  H    0.140831
    72  H    0.145919
    73  C   -0.468289
    74  H    0.128029
    75  H    0.144314
    76  H    0.181920
    77  N   -0.642128
    78  H    0.439092
    79  C   -0.022574
    80  H    0.166713
    81  C    0.629847
    82  C   -0.295443
    83  H    0.144560
    84  H    0.179466
    85  O   -0.579091
    86  C   -0.368223
    87  H    0.159311
    88  H    0.148975
    89  C    0.612224
    90  O   -0.589670
    91  O   -0.615039
    92  N   -0.643398
    93  H    0.391191
    94  C   -0.052094
    95  H    0.195701
    96  C    0.628053
    97  C   -0.406208
    98  H    0.196343
    99  H    0.186074
   100  O   -0.567377
   101  C    0.619999
   102  N   -0.740143
   103  H    0.356393
   104  H    0.350672
   105  O   -0.519501
   106  N   -0.631779
   107  H    0.392379
   108  C   -0.021530
   109  H    0.162550
   110  C    0.653816
   111  C   -0.381399
   112  H    0.170034
   113  H    0.179248
   114  O   -0.592589
   115  C    0.141716
   116  C   -0.191908
   117  H    0.158088
   118  C   -0.193156
   119  H    0.137556
   120  C   -0.164671
   121  H    0.172597
   122  C   -0.181244
   123  H    0.133514
   124  O   -0.650178
   125  H    0.417156
   126  C    0.327785
   127  N   -0.558424
   128  H    0.361084
   129  C   -0.077256
   130  H    0.203365
   131  C    0.606346
   132  C   -0.277937
   133  H    0.163239
   134  H    0.179221
   135  O   -0.448201
   136  C   -0.305370
   137  H    0.167853
   138  H    0.172214
   139  C   -0.147866
   140  H    0.203057
   141  H    0.147912
   142  N   -0.634551
   143  H    0.390512
   144  N   -0.797626
   145  H    0.421842
   146  H    0.357026
   147  N   -0.790217
   148  H    0.410970
   149  H    0.396870
   150  C    0.763397
   151  O   -0.588169
   152  H    0.434407
 Sum of Mulliken charges =   1.00000

 Dipole moment (field-independent basis, Debye):
    X=             -0.6176    Y=              6.3319    Z=              0.9185  Tot=              6.4279
 Quadrupole moment (field-independent basis, Debye-Ang):
   XX=           -116.4572   YY=           -416.8449   ZZ=           -333.8492
   XY=            -24.0694   XZ=           -117.4099   YZ=            -12.2107

 Normal termination of Gaussian 16 at Mon Aug 15 06:27:55 2022.
