 Gaussian 16, Revision C.01,
 Gaussian 16:  ES64L-G16RevC.01  3-Jul-2019

 ----------------------------------------------------------------------
 # B3LYP/6-31G* empiricaldispersion=gd3bj guess=read geom=check nosymm
 integral(ultrafinegrid)
 ----------------------------------------------------------------------

 ------------------------------------------------------
 Candidate Structure: Conf:962 Charge calc in gas phase
 ------------------------------------------------------
 Structure from the checkpoint file:  "conf-962.chk"
 Charge =  1 Multiplicity = 1

                          Input orientation:
 ---------------------------------------------------------------------
 Center     Atomic      Atomic             Coordinates (Angstroms)
 Number     Number       Type             X           Y           Z
 ---------------------------------------------------------------------
      1          7           0       -2.904913   -1.149062    9.061285
      2          1           0       -3.078388   -1.995909    9.606929
      3          1           0       -2.000292   -1.256993    8.496516
      4          1           0       -2.841921   -0.353253    9.700929
      5          6           0       -3.910314   -0.931139    7.950493
      6          1           0       -4.699240   -1.678855    8.058323
      7          6           0       -3.061218   -1.186584    6.679739
      8          6           0       -4.505174    0.492658    7.988072
      9          1           0       -5.168424    0.542535    7.115574
     10          8           0       -1.834476   -1.325868    6.827955
     11          6           0       -5.359574    0.708398    9.243645
     12          1           0       -4.757607    0.705511   10.162936
     13          1           0       -5.852632    1.683300    9.197824
     14          1           0       -6.136255   -0.057273    9.344012
     15          6           0       -3.431214    1.577730    7.822658
     16          1           0       -2.738428    1.615358    8.674442
     17          1           0       -2.839185    1.439963    6.913732
     18          1           0       -3.906381    2.560336    7.764146
     19          7           0       -3.718449   -1.193488    5.533428
     20          1           0       -4.700971   -0.911207    5.479944
     21          6           0       -3.071180   -1.112015    4.222259
     22          1           0       -2.197154   -0.463170    4.329575
     23          6           0       -4.101784   -0.346313    3.366240
     24          6           0       -2.605540   -2.496307    3.715079
     25          1           0       -2.054754   -2.919282    4.565859
     26          8           0       -5.181250    0.003560    3.863250
     27          6           0       -1.614668   -2.414486    2.536914
     28          1           0       -2.138088   -2.218652    1.595808
     29          1           0       -1.202420   -3.423122    2.408947
     30          6           0       -3.791326   -3.408188    3.388251
     31          1           0       -4.361747   -3.019773    2.536823
     32          1           0       -4.474353   -3.506947    4.239441
     33          1           0       -3.441067   -4.409929    3.120859
     34          6           0       -0.455552   -1.425366    2.712655
     35          1           0        0.267981   -1.548324    1.901932
     36          1           0       -0.776163   -0.376521    2.689990
     37          1           0        0.067703   -1.584073    3.663249
     38          7           0       -3.716488   -0.024509    2.126543
     39          1           0       -2.821531   -0.334017    1.764218
     40          6           0       -4.345615    1.024267    1.341791
     41          1           0       -5.405026    0.784114    1.194773
     42          6           0       -3.644339    0.986344   -0.026969
     43          6           0       -4.254334    2.406474    2.067858
     44          1           0       -4.980191    2.373683    2.884148
     45          1           0       -4.582597    3.196156    1.383287
     46          8           0       -2.772626    0.139049   -0.258367
     47          6           0       -2.872240    2.698247    2.604815
     48          6           0       -2.523975    2.288423    3.899876
     49          1           0       -3.291086    1.860508    4.540803
     50          6           0       -1.896224    3.310015    1.810500
     51          1           0       -2.143354    3.672342    0.817065
     52          6           0       -1.214872    2.418080    4.364136
     53          1           0       -0.955354    2.073027    5.362689
     54          6           0       -0.589409    3.457663    2.281891
     55          1           0        0.164031    3.923598    1.654539
     56          6           0       -0.235172    2.987411    3.547472
     57          1           0        0.796712    3.055594    3.874596
     58          7           0       -4.029201    1.896990   -0.940651
     59          1           0       -4.626280    2.659274   -0.648082
     60          6           0       -3.249883    2.113214   -2.170705
     61          1           0       -3.068665    1.127919   -2.604711
     62          6           0       -1.926440    2.771460   -1.735369
     63          6           0       -4.026073    2.992582   -3.145908
     64          1           0       -4.303982    3.919557   -2.628445
     65          1           0       -4.952458    2.471725   -3.421973
     66          8           0       -1.910165    3.936993   -1.339844
     67          6           0       -3.232617    3.360643   -4.413815
     68          1           0       -2.399922    4.003826   -4.100944
     69          6           0       -2.646015    2.132420   -5.124456
     70          1           0       -3.424342    1.388552   -5.339906
     71          1           0       -1.858332    1.651355   -4.533945
     72          1           0       -2.193856    2.423297   -6.078348
     73          6           0       -4.126820    4.169661   -5.360415
     74          1           0       -4.964504    3.561057   -5.724203
     75          1           0       -3.561367    4.513690   -6.232827
     76          1           0       -4.543567    5.051408   -4.860230
     77          7           0       -0.865683    1.943445   -1.747764
     78          1           0       -0.993893    0.992301   -2.062935
     79          6           0        0.418429    2.236401   -1.143304
     80          1           0        0.362358    3.240199   -0.722060
     81          6           0        1.499166    2.182042   -2.224348
     82          6           0        0.656611    1.183823   -0.027734
     83          1           0        0.493543    0.197608   -0.474793
     84          1           0       -0.139105    1.330804    0.707569
     85          8           0        1.386718    1.459112   -3.221160
     86          6           0        2.016210    1.131201    0.683956
     87          1           0        1.980823    0.314015    1.409501
     88          1           0        2.795261    0.870285   -0.044066
     89          6           0        2.517824    2.382753    1.417520
     90          8           0        2.898265    2.244625    2.606377
     91          8           0        2.616645    3.469559    0.747562
     92          7           0        2.579675    2.943028   -1.950873
     93          1           0        2.630672    3.302885   -0.979240
     94          6           0        3.830013    2.758213   -2.678728
     95          1           0        3.600831    2.598783   -3.733665
     96          6           0        4.503709    1.493456   -2.126215
     97          6           0        4.712306    3.994268   -2.519064
     98          1           0        4.239650    4.824309   -3.057096
     99          1           0        4.779286    4.295040   -1.470104
    100          8           0        5.432452    1.534973   -1.302082
    101          6           0        6.095691    3.753818   -3.110125
    102          7           0        7.123663    4.408280   -2.476104
    103          1           0        8.011471    4.426096   -2.961598
    104          1           0        6.930665    5.172416   -1.843831
    105          8           0        6.271439    3.018988   -4.067291
    106          7           0        3.949171    0.336078   -2.518470
    107          1           0        3.124305    0.387282   -3.111551
    108          6           0        4.377960   -0.940065   -1.971061
    109          1           0        4.153095   -0.959138   -0.895283
    110          6           0        5.899860   -1.072971   -2.165193
    111          6           0        3.612640   -2.093166   -2.652808
    112          1           0        3.695043   -1.964654   -3.737400
    113          1           0        4.131480   -3.025563   -2.404971
    114          8           0        6.446885   -0.830954   -3.227997
    115          6           0        2.169803   -2.179863   -2.203930
    116          6           0        1.845367   -2.877950   -1.031487
    117          1           0        2.632541   -3.387554   -0.480046
    118          6           0        1.130484   -1.554335   -2.900032
    119          1           0        1.335643   -1.016907   -3.819424
    120          6           0        0.538753   -2.941236   -0.559187
    121          1           0        0.293184   -3.496127    0.340086
    122          6           0       -0.184841   -1.602321   -2.433279
    123          1           0       -0.983096   -1.136772   -3.006998
    124          8           0       -1.757177   -2.379185   -0.755819
    125          1           0       -2.232353   -1.540304   -0.906257
    126          6           0       -0.486908   -2.286590   -1.251315
    127          7           0        6.568229   -1.502580   -1.054292
    128          1           0        6.074609   -1.599417   -0.177389
    129          6           0        8.003272   -1.329669   -0.949286
    130          1           0        8.461300   -1.644887   -1.889102
    131          6           0        8.498571   -2.203286    0.185537
    132          6           0        8.387395    0.154313   -0.685560
    133          1           0        9.480352    0.234768   -0.653252
    134          1           0        8.030048    0.726428   -1.547021
    135          8           0        7.805204   -2.614403    1.092704
    136          6           0        7.752639    0.700875    0.596940
    137          1           0        6.670713    0.555793    0.539175
    138          1           0        8.111437    0.145991    1.474392
    139          6           0        8.014057    2.195162    0.813610
    140          1           0        9.078602    2.393675    0.974237
    141          1           0        7.709797    2.779171   -0.059079
    142          7           0        7.293887    2.706580    1.988839
    143          1           0        7.623665    2.365002    2.881973
    144          7           0        5.384587    3.335861    0.805341
    145          1           0        4.390054    3.615817    0.858188
    146          1           0        5.612554    2.771632   -0.021298
    147          7           0        5.343659    3.382858    3.101768
    148          1           0        4.318098    3.181582    3.063619
    149          1           0        5.809674    3.207638    3.980903
    150          6           0        6.004212    3.111952    1.961805
    151          8           0        9.826998   -2.415775    0.112200
    152          1           0       10.071358   -2.945034    0.895272
 ---------------------------------------------------------------------

 SCF Done:  E(RB3LYP) =  -3587.02216629     A.U. after    2 cycles

 Alpha  occ. eigenvalues --  -19.26556 -19.26104 -19.21742 -19.21704 -19.21567
 Alpha  occ. eigenvalues --  -19.20495 -19.18679 -19.17111 -19.17042 -19.16115
 Alpha  occ. eigenvalues --  -19.15894 -19.14862 -19.14596 -14.59436 -14.48524
 Alpha  occ. eigenvalues --  -14.45254 -14.45228 -14.44901 -14.42351 -14.41772
 Alpha  occ. eigenvalues --  -14.41602 -14.41151 -14.40851 -14.40804 -14.40143
 Alpha  occ. eigenvalues --  -10.42899 -10.40116 -10.39715 -10.38492 -10.38475
 Alpha  occ. eigenvalues --  -10.38346 -10.34847 -10.34377 -10.34306 -10.33995
 Alpha  occ. eigenvalues --  -10.33631 -10.33275 -10.32965 -10.32731 -10.32590
 Alpha  occ. eigenvalues --  -10.30855 -10.30490 -10.30218 -10.29887 -10.29852
 Alpha  occ. eigenvalues --  -10.29395 -10.29053 -10.28855 -10.28104 -10.27853
 Alpha  occ. eigenvalues --  -10.27380 -10.26077 -10.25517 -10.25395 -10.25250
 Alpha  occ. eigenvalues --  -10.25188 -10.25096 -10.25012 -10.24986 -10.24762
 Alpha  occ. eigenvalues --  -10.24752 -10.24495 -10.24438 -10.24357 -10.24202
 Alpha  occ. eigenvalues --  -10.24183 -10.24118 -10.24100 -10.24076 -10.24026
 Alpha  occ. eigenvalues --  -10.23935 -10.23818 -10.23060 -10.22193 -10.21919
 Alpha  occ. eigenvalues --   -1.18957  -1.17076  -1.14063  -1.13461  -1.13083
 Alpha  occ. eigenvalues --   -1.10516  -1.09827  -1.09295  -1.08694  -1.08514
 Alpha  occ. eigenvalues --   -1.08291  -1.08070  -1.07780  -1.07626  -1.05600
 Alpha  occ. eigenvalues --   -1.02096  -1.01465  -0.99088  -0.98780  -0.98510
 Alpha  occ. eigenvalues --   -0.98439  -0.97832  -0.97366  -0.95440  -0.95306
 Alpha  occ. eigenvalues --   -0.95259  -0.91842  -0.90617  -0.90331  -0.87798
 Alpha  occ. eigenvalues --   -0.86336  -0.86318  -0.86077  -0.85288  -0.84243
 Alpha  occ. eigenvalues --   -0.82868  -0.82274  -0.81890  -0.81541  -0.81433
 Alpha  occ. eigenvalues --   -0.80408  -0.80038  -0.79902  -0.78902  -0.78329
 Alpha  occ. eigenvalues --   -0.77053  -0.74973  -0.74318  -0.74052  -0.73656
 Alpha  occ. eigenvalues --   -0.73559  -0.73091  -0.72560  -0.71162  -0.70904
 Alpha  occ. eigenvalues --   -0.70841  -0.70381  -0.69776  -0.68811  -0.68246
 Alpha  occ. eigenvalues --   -0.67859  -0.67244  -0.67090  -0.66578  -0.66502
 Alpha  occ. eigenvalues --   -0.66152  -0.65935  -0.65048  -0.64768  -0.64315
 Alpha  occ. eigenvalues --   -0.64178  -0.63964  -0.62978  -0.62826  -0.62606
 Alpha  occ. eigenvalues --   -0.61883  -0.61550  -0.61403  -0.61193  -0.59824
 Alpha  occ. eigenvalues --   -0.59579  -0.59413  -0.58972  -0.58443  -0.58267
 Alpha  occ. eigenvalues --   -0.57885  -0.57568  -0.57361  -0.57071  -0.56384
 Alpha  occ. eigenvalues --   -0.56192  -0.56007  -0.55650  -0.55196  -0.55107
 Alpha  occ. eigenvalues --   -0.55009  -0.54959  -0.54596  -0.54384  -0.54318
 Alpha  occ. eigenvalues --   -0.53934  -0.53549  -0.53008  -0.52953  -0.52732
 Alpha  occ. eigenvalues --   -0.52409  -0.52231  -0.52195  -0.52008  -0.51914
 Alpha  occ. eigenvalues --   -0.51650  -0.51329  -0.51027  -0.50950  -0.50840
 Alpha  occ. eigenvalues --   -0.50647  -0.50531  -0.50074  -0.49934  -0.49830
 Alpha  occ. eigenvalues --   -0.49614  -0.49152  -0.49045  -0.48879  -0.48619
 Alpha  occ. eigenvalues --   -0.48362  -0.48268  -0.47959  -0.47850  -0.47647
 Alpha  occ. eigenvalues --   -0.47512  -0.47452  -0.47176  -0.47119  -0.47023
 Alpha  occ. eigenvalues --   -0.46850  -0.46682  -0.46368  -0.46305  -0.46111
 Alpha  occ. eigenvalues --   -0.45983  -0.45777  -0.45678  -0.45537  -0.45205
 Alpha  occ. eigenvalues --   -0.45120  -0.44885  -0.44705  -0.44427  -0.44406
 Alpha  occ. eigenvalues --   -0.44364  -0.43991  -0.43745  -0.43661  -0.43147
 Alpha  occ. eigenvalues --   -0.43127  -0.42719  -0.42485  -0.42148  -0.41958
 Alpha  occ. eigenvalues --   -0.41799  -0.41655  -0.41554  -0.41426  -0.41394
 Alpha  occ. eigenvalues --   -0.41138  -0.41098  -0.40879  -0.40427  -0.40263
 Alpha  occ. eigenvalues --   -0.40051  -0.39779  -0.39764  -0.39569  -0.39340
 Alpha  occ. eigenvalues --   -0.38900  -0.38414  -0.38273  -0.38123  -0.37837
 Alpha  occ. eigenvalues --   -0.37799  -0.37409  -0.36670  -0.36013  -0.35733
 Alpha  occ. eigenvalues --   -0.35421  -0.34607  -0.34491  -0.34105  -0.34010
 Alpha  occ. eigenvalues --   -0.33615  -0.32312  -0.32073  -0.31913  -0.30977
 Alpha  occ. eigenvalues --   -0.30879  -0.30699  -0.30539  -0.30456  -0.30349
 Alpha  occ. eigenvalues --   -0.30261  -0.29875  -0.29713  -0.29274  -0.29098
 Alpha  occ. eigenvalues --   -0.28399  -0.27131
 Alpha virt. eigenvalues --   -0.11852  -0.11108  -0.08504  -0.07322  -0.06677
 Alpha virt. eigenvalues --   -0.06420  -0.06114  -0.05963  -0.05565  -0.05245
 Alpha virt. eigenvalues --   -0.04937  -0.04555  -0.03856  -0.03681  -0.02642

 Mulliken charges:
               1
     1  N   -0.763295
     2  H    0.414698
     3  H    0.434955
     4  H    0.408225
     5  C   -0.100450
     6  H    0.212963
     7  C    0.648059
     8  C   -0.130822
     9  H    0.196282
    10  O   -0.552670
    11  C   -0.462012
    12  H    0.137384
    13  H    0.199661
    14  H    0.172582
    15  C   -0.488162
    16  H    0.139206
    17  H    0.201274
    18  H    0.200196
    19  N   -0.602490
    20  H    0.376396
    21  C   -0.086758
    22  H    0.210921
    23  C    0.635807
    24  C   -0.079032
    25  H    0.149837
    26  O   -0.566546
    27  C   -0.301259
    28  H    0.181876
    29  H    0.152102
    30  C   -0.461521
    31  H    0.164401
    32  H    0.136730
    33  H    0.167736
    34  C   -0.493381
    35  H    0.177781
    36  H    0.159161
    37  H    0.151989
    38  N   -0.628842
    39  H    0.391716
    40  C   -0.035355
    41  H    0.198669
    42  C    0.647163
    43  C   -0.399245
    44  H    0.186265
    45  H    0.157754
    46  O   -0.567425
    47  C    0.170091
    48  C   -0.206065
    49  H    0.112223
    50  C   -0.214388
    51  H    0.187641
    52  C   -0.144359
    53  H    0.116431
    54  C   -0.171214
    55  H    0.181631
    56  C   -0.129479
    57  H    0.169406
    58  N   -0.607075
    59  H    0.347396
    60  C   -0.050801
    61  H    0.162188
    62  C    0.632682
    63  C   -0.282375
    64  H    0.152335
    65  H    0.144693
    66  O   -0.546106
    67  C   -0.085977
    68  H    0.159275
    69  C   -0.460753
    70  H    0.139525
    71  H    0.148763
    72  H    0.159288
    73  C   -0.446681
    74  H    0.142346
    75  H    0.153844
    76  H    0.146828
    77  N   -0.564878
    78  H    0.352098
    79  C   -0.096428
    80  H    0.204353
    81  C    0.623388
    82  C   -0.289553
    83  H    0.164833
    84  H    0.166614
    85  O   -0.566775
    86  C   -0.380767
    87  H    0.158835
    88  H    0.159345
    89  C    0.611165
    90  O   -0.582522
    91  O   -0.622140
    92  N   -0.632064
    93  H    0.398927
    94  C   -0.061775
    95  H    0.208124
    96  C    0.691124
    97  C   -0.404590
    98  H    0.193748
    99  H    0.164968
   100  O   -0.595908
   101  C    0.618108
   102  N   -0.756955
   103  H    0.345426
   104  H    0.338684
   105  O   -0.492797
   106  N   -0.617532
   107  H    0.386667
   108  C   -0.024251
   109  H    0.146104
   110  C    0.650787
   111  C   -0.402847
   112  H    0.184635
   113  H    0.170102
   114  O   -0.513338
   115  C    0.166248
   116  C   -0.187817
   117  H    0.128585
   118  C   -0.174938
   119  H    0.158024
   120  C   -0.165224
   121  H    0.139439
   122  C   -0.218115
   123  H    0.132798
   124  O   -0.677551
   125  H    0.436835
   126  C    0.350213
   127  N   -0.610225
   128  H    0.338952
   129  C   -0.040392
   130  H    0.207738
   131  C    0.589009
   132  C   -0.287869
   133  H    0.154475
   134  H    0.206924
   135  O   -0.477478
   136  C   -0.273250
   137  H    0.165422
   138  H    0.137544
   139  C   -0.185279
   140  H    0.167103
   141  H    0.199872
   142  N   -0.585320
   143  H    0.335447
   144  N   -0.844178
   145  H    0.408993
   146  H    0.423838
   147  N   -0.768139
   148  H    0.402194
   149  H    0.331816
   150  C    0.752008
   151  O   -0.562013
   152  H    0.417562
 Sum of Mulliken charges =   1.00000

 Dipole moment (field-independent basis, Debye):
    X=             -5.4878    Y=              0.2631    Z=             34.2235  Tot=             34.6617
 Quadrupole moment (field-independent basis, Debye-Ang):
   XX=           -262.1503   YY=           -419.7124   ZZ=           -155.0335
   XY=             29.4079   XZ=            -61.0472   YZ=            -34.6342

 Normal termination of Gaussian 16 at Mon Aug 15 06:25:43 2022.
