 Gaussian 16, Revision C.01,
 Gaussian 16:  ES64L-G16RevC.01  3-Jul-2019

 ----------------------------------------------------------------------
 # B3LYP/6-31G* empiricaldispersion=gd3bj guess=read geom=check nosymm
 integral(ultrafinegrid)
 ----------------------------------------------------------------------

 ------------------------------------------------------
 Candidate Structure: Conf:448 Charge calc in gas phase
 ------------------------------------------------------
 Structure from the checkpoint file:  "conf-448.chk"
 Charge =  1 Multiplicity = 1

                          Input orientation:
 ---------------------------------------------------------------------
 Center     Atomic      Atomic             Coordinates (Angstroms)
 Number     Number       Type             X           Y           Z
 ---------------------------------------------------------------------
      1          7           0       -1.825329   -0.543930    5.895051
      2          1           0       -1.344692   -0.431042    6.788627
      3          1           0       -2.772635   -0.981321    6.015599
      4          1           0       -1.287447   -1.209868    5.315960
      5          6           0       -2.099504    0.759622    5.177340
      6          1           0       -1.892663    1.575752    5.876581
      7          6           0       -3.617115    0.663667    4.887801
      8          6           0       -1.173170    0.883517    3.938758
      9          1           0       -1.431407    0.057951    3.262468
     10          8           0       -4.208555   -0.384006    5.182044
     11          6           0       -1.354751    2.206866    3.176346
     12          1           0       -1.348626    3.068032    3.858952
     13          1           0       -0.508462    2.323548    2.493103
     14          1           0       -2.259394    2.221298    2.563396
     15          6           0        0.298191    0.731913    4.360125
     16          1           0        0.578232    1.512233    5.079670
     17          1           0        0.526188   -0.243828    4.807624
     18          1           0        0.923942    0.847272    3.468447
     19          7           0       -4.218678    1.711759    4.305677
     20          1           0       -3.629466    2.468443    3.979038
     21          6           0       -5.441410    1.485381    3.503246
     22          1           0       -6.096958    0.839671    4.089045
     23          6           0       -4.895484    0.765632    2.261983
     24          6           0       -6.141220    2.800273    3.150014
     25          1           0       -5.433343    3.380340    2.543285
     26          8           0       -4.220388    1.392701    1.439600
     27          6           0       -6.491964    3.627147    4.402681
     28          1           0       -6.965519    4.555302    4.061041
     29          1           0       -5.565048    3.929871    4.906807
     30          6           0       -7.363323    2.501418    2.269566
     31          1           0       -8.078223    1.842131    2.774107
     32          1           0       -7.069580    2.025460    1.328142
     33          1           0       -7.884517    3.430393    2.020084
     34          6           0       -7.406315    2.931660    5.416159
     35          1           0       -7.639836    3.607840    6.244493
     36          1           0       -8.356502    2.625792    4.966422
     37          1           0       -6.935404    2.040580    5.848105
     38          7           0       -5.070248   -0.571799    2.198752
     39          1           0       -5.568202   -1.018698    2.956955
     40          6           0       -4.221651   -1.428394    1.362326
     41          1           0       -3.235183   -0.949105    1.346372
     42          6           0       -4.596486   -1.500414   -0.142102
     43          6           0       -4.099878   -2.829060    1.974089
     44          1           0       -3.862481   -3.498624    1.140703
     45          1           0       -5.076556   -3.153913    2.353422
     46          8           0       -4.374068   -2.526984   -0.779006
     47          6           0       -3.045468   -2.971339    3.049635
     48          6           0       -1.700773   -2.690874    2.764712
     49          1           0       -1.424402   -2.326552    1.780379
     50          6           0       -3.361768   -3.467055    4.321432
     51          1           0       -4.397058   -3.689489    4.564026
     52          6           0       -0.698047   -2.921195    3.709889
     53          1           0        0.338044   -2.724523    3.449091
     54          6           0       -2.365566   -3.713835    5.268923
     55          1           0       -2.633383   -4.135183    6.233987
     56          6           0       -1.025257   -3.448042    4.966019
     57          1           0       -0.243617   -3.675502    5.686228
     58          7           0       -5.043359   -0.342865   -0.686959
     59          1           0       -4.907609    0.494407   -0.122401
     60          6           0       -4.899418   -0.098781   -2.135581
     61          1           0       -4.938212   -1.072422   -2.624208
     62          6           0       -3.489028    0.516844   -2.229748
     63          6           0       -5.987520    0.834703   -2.653072
     64          1           0       -5.874546    0.906383   -3.743380
     65          1           0       -5.792110    1.839126   -2.260145
     66          8           0       -3.303639    1.716593   -2.057113
     67          6           0       -7.419963    0.396306   -2.309659
     68          1           0       -7.512601    0.391980   -1.213795
     69          6           0       -8.424711    1.410928   -2.867695
     70          1           0       -8.382844    1.439409   -3.963719
     71          1           0       -8.216129    2.422878   -2.501021
     72          1           0       -9.449969    1.150607   -2.581234
     73          6           0       -7.731192   -1.019949   -2.810004
     74          1           0       -7.587990   -1.089645   -3.896152
     75          1           0       -8.771993   -1.288200   -2.596227
     76          1           0       -7.091130   -1.772357   -2.336758
     77          7           0       -2.484002   -0.395335   -2.332936
     78          1           0       -2.706992   -1.382175   -2.404253
     79          6           0       -1.146652   -0.088193   -1.853789
     80          1           0       -0.943477    0.961301   -2.063303
     81          6           0       -0.150569   -0.984127   -2.591959
     82          6           0       -1.105654   -0.326158   -0.322405
     83          1           0       -1.524283   -1.329464   -0.164815
     84          1           0       -1.803496    0.394078    0.122134
     85          8           0       -0.444156   -2.113430   -2.977738
     86          6           0        0.250809   -0.266826    0.396934
     87          1           0        0.098215   -0.520273    1.451758
     88          1           0        0.928848   -1.022854   -0.018192
     89          6           0        1.020834    1.054626    0.332678
     90          8           0        1.425231    1.557573    1.420084
     91          8           0        1.276170    1.539311   -0.813716
     92          7           0        1.061621   -0.396833   -2.763855
     93          1           0        1.241792    0.418724   -2.158532
     94          6           0        2.177236   -1.120158   -3.306299
     95          1           0        1.770307   -1.841081   -4.021239
     96          6           0        2.944372   -1.927735   -2.230996
     97          6           0        3.119027   -0.115171   -4.052337
     98          1           0        2.795571   -0.030472   -5.093988
     99          1           0        3.012567    0.869908   -3.593652
    100          8           0        3.033964   -1.601536   -1.051131
    101          6           0        4.582085   -0.505790   -3.937498
    102          7           0        5.090953   -1.324527   -4.885101
    103          1           0        5.904809   -1.873968   -4.614144
    104          1           0        4.490434   -1.724703   -5.593474
    105          8           0        5.253542   -0.128038   -2.967928
    106          7           0        3.529592   -3.030318   -2.761613
    107          1           0        3.437406   -3.188968   -3.756057
    108          6           0        4.463033   -3.904102   -2.084340
    109          1           0        4.107632   -4.035445   -1.058129
    110          6           0        5.874270   -3.290737   -2.056506
    111          6           0        4.472138   -5.288799   -2.801365
    112          1           0        5.332524   -5.858366   -2.435616
    113          1           0        3.570692   -5.820904   -2.480245
    114          8           0        6.538356   -3.094938   -3.076594
    115          6           0        4.489014   -5.193590   -4.311959
    116          6           0        3.282832   -5.083582   -5.024057
    117          1           0        2.337815   -5.161739   -4.491039
    118          6           0        5.684465   -5.128544   -5.037371
    119          1           0        6.631367   -5.203332   -4.515732
    120          6           0        3.263015   -4.874968   -6.401593
    121          1           0        2.328332   -4.795203   -6.946504
    122          6           0        5.681829   -4.934590   -6.416014
    123          1           0        6.623219   -4.889425   -6.959664
    124          8           0        4.401098   -4.590042   -8.449357
    125          1           0        5.295336   -4.610655   -8.824821
    126          6           0        4.469985   -4.796966   -7.104283
    127          7           0        6.357002   -3.026927   -0.821569
    128          1           0        5.754751   -3.122106   -0.016907
    129          6           0        7.683868   -2.457133   -0.638373
    130          1           0        8.363449   -2.992998   -1.310393
    131          6           0        8.200939   -2.675163    0.774628
    132          6           0        7.752769   -0.960134   -1.002911
    133          1           0        8.793579   -0.639345   -0.888086
    134          1           0        7.472780   -0.868606   -2.054500
    135          8           0        9.267433   -2.266205    1.167191
    136          6           0        6.822241   -0.099091   -0.150627
    137          1           0        5.797557   -0.477516   -0.234012
    138          1           0        7.110306   -0.154883    0.908771
    139          6           0        6.850298    1.367196   -0.594159
    140          1           0        7.856393    1.785132   -0.494676
    141          1           0        6.573328    1.451289   -1.647706
    142          7           0        5.957440    2.218351    0.196305
    143          1           0        6.308836    2.504175    1.099711
    144          7           0        4.021412    1.569953   -0.936455
    145          1           0        2.988260    1.609726   -0.979613
    146          1           0        4.517897    0.954614   -1.585687
    147          7           0        3.847270    2.821312    0.986047
    148          1           0        2.856358    2.517215    1.113155
    149          1           0        4.299429    3.266729    1.770298
    150          6           0        4.606601    2.178387    0.082443
    151          8           0        7.335036   -3.354478    1.568770
    152          1           0        7.768991   -3.431808    2.439812
 ---------------------------------------------------------------------

 SCF Done:  E(RB3LYP) =  -3587.01443393     A.U. after    1 cycles

 Alpha  occ. eigenvalues --  -19.27808 -19.26316 -19.23899 -19.22058 -19.21401
 Alpha  occ. eigenvalues --  -19.19595 -19.18969 -19.18858 -19.18607 -19.16528
 Alpha  occ. eigenvalues --  -19.16036 -19.15849 -19.15714 -14.57079 -14.49016
 Alpha  occ. eigenvalues --  -14.46768 -14.44883 -14.43809 -14.42860 -14.42380
 Alpha  occ. eigenvalues --  -14.42214 -14.41893 -14.41284 -14.40085 -14.39819
 Alpha  occ. eigenvalues --  -10.42832 -10.39767 -10.39594 -10.38953 -10.38730
 Alpha  occ. eigenvalues --  -10.36715 -10.36078 -10.35855 -10.35426 -10.33733
 Alpha  occ. eigenvalues --  -10.33725 -10.33265 -10.32971 -10.32614 -10.31792
 Alpha  occ. eigenvalues --  -10.31331 -10.31245 -10.30962 -10.30300 -10.30157
 Alpha  occ. eigenvalues --  -10.29820 -10.29805 -10.29768 -10.29690 -10.29253
 Alpha  occ. eigenvalues --  -10.29119 -10.28205 -10.28142 -10.27949 -10.27532
 Alpha  occ. eigenvalues --  -10.27530 -10.27166 -10.26701 -10.26677 -10.26378
 Alpha  occ. eigenvalues --  -10.25630 -10.25530 -10.25520 -10.25512 -10.25308
 Alpha  occ. eigenvalues --  -10.25219 -10.25170 -10.25086 -10.24978 -10.24854
 Alpha  occ. eigenvalues --  -10.23877 -10.23278 -10.22625 -10.21423 -10.21383
 Alpha  occ. eigenvalues --   -1.18621  -1.18453  -1.14284  -1.12059  -1.11816
 Alpha  occ. eigenvalues --   -1.11375  -1.10759  -1.10660  -1.10106  -1.09305
 Alpha  occ. eigenvalues --   -1.09179  -1.08431  -1.08198  -1.07639  -1.05695
 Alpha  occ. eigenvalues --   -1.02925  -1.00385  -1.00107  -1.00097  -0.98786
 Alpha  occ. eigenvalues --   -0.98285  -0.97793  -0.97426  -0.96823  -0.96127
 Alpha  occ. eigenvalues --   -0.95331  -0.93044  -0.91781  -0.90490  -0.88844
 Alpha  occ. eigenvalues --   -0.87569  -0.86270  -0.85813  -0.84967  -0.84902
 Alpha  occ. eigenvalues --   -0.84760  -0.83872  -0.83488  -0.82537  -0.81723
 Alpha  occ. eigenvalues --   -0.81127  -0.79892  -0.79608  -0.79018  -0.78381
 Alpha  occ. eigenvalues --   -0.77060  -0.75811  -0.75114  -0.74280  -0.73076
 Alpha  occ. eigenvalues --   -0.72590  -0.72376  -0.72055  -0.71739  -0.71295
 Alpha  occ. eigenvalues --   -0.71123  -0.70786  -0.69951  -0.69317  -0.69236
 Alpha  occ. eigenvalues --   -0.68858  -0.68314  -0.68226  -0.67052  -0.66726
 Alpha  occ. eigenvalues --   -0.66220  -0.66042  -0.65948  -0.65256  -0.65057
 Alpha  occ. eigenvalues --   -0.64910  -0.64361  -0.63499  -0.63087  -0.62532
 Alpha  occ. eigenvalues --   -0.62492  -0.61885  -0.61773  -0.61621  -0.61256
 Alpha  occ. eigenvalues --   -0.60618  -0.60447  -0.60180  -0.59949  -0.59539
 Alpha  occ. eigenvalues --   -0.58227  -0.57921  -0.57653  -0.57341  -0.57021
 Alpha  occ. eigenvalues --   -0.56527  -0.56268  -0.56124  -0.55653  -0.55609
 Alpha  occ. eigenvalues --   -0.55430  -0.55204  -0.55010  -0.54828  -0.54343
 Alpha  occ. eigenvalues --   -0.54004  -0.53821  -0.53536  -0.53476  -0.53301
 Alpha  occ. eigenvalues --   -0.53121  -0.52695  -0.52481  -0.52360  -0.52146
 Alpha  occ. eigenvalues --   -0.51977  -0.51646  -0.51485  -0.51293  -0.51043
 Alpha  occ. eigenvalues --   -0.50987  -0.50590  -0.50466  -0.50336  -0.49993
 Alpha  occ. eigenvalues --   -0.49752  -0.49577  -0.49560  -0.49446  -0.49196
 Alpha  occ. eigenvalues --   -0.49079  -0.48744  -0.48579  -0.48436  -0.48176
 Alpha  occ. eigenvalues --   -0.47979  -0.47900  -0.47744  -0.47497  -0.47286
 Alpha  occ. eigenvalues --   -0.47192  -0.47011  -0.46806  -0.46676  -0.46512
 Alpha  occ. eigenvalues --   -0.46203  -0.46060  -0.46013  -0.45861  -0.45814
 Alpha  occ. eigenvalues --   -0.45612  -0.45580  -0.45161  -0.44820  -0.44737
 Alpha  occ. eigenvalues --   -0.44588  -0.44459  -0.44248  -0.44218  -0.44112
 Alpha  occ. eigenvalues --   -0.43969  -0.43698  -0.43613  -0.43411  -0.43266
 Alpha  occ. eigenvalues --   -0.42883  -0.42577  -0.42365  -0.42169  -0.41700
 Alpha  occ. eigenvalues --   -0.41660  -0.41408  -0.41260  -0.41206  -0.41116
 Alpha  occ. eigenvalues --   -0.40815  -0.40682  -0.40452  -0.40187  -0.39937
 Alpha  occ. eigenvalues --   -0.39781  -0.39770  -0.39448  -0.39389  -0.39056
 Alpha  occ. eigenvalues --   -0.37124  -0.36899  -0.36699  -0.36644  -0.35798
 Alpha  occ. eigenvalues --   -0.35516  -0.35474  -0.35099  -0.35021  -0.34490
 Alpha  occ. eigenvalues --   -0.33872  -0.33747  -0.33480  -0.33271  -0.32981
 Alpha  occ. eigenvalues --   -0.32474  -0.31935  -0.31791  -0.31633  -0.31207
 Alpha  occ. eigenvalues --   -0.30811  -0.30379  -0.30226  -0.29489  -0.29179
 Alpha  occ. eigenvalues --   -0.28614  -0.28005
 Alpha virt. eigenvalues --   -0.12668  -0.11559  -0.10878  -0.08568  -0.08113
 Alpha virt. eigenvalues --   -0.06942  -0.06853  -0.06161  -0.06106  -0.05909
 Alpha virt. eigenvalues --   -0.04967  -0.04477  -0.04159  -0.03233  -0.02997

 Mulliken charges:
               1
     1  N   -0.782041
     2  H    0.402060
     3  H    0.430121
     4  H    0.421124
     5  C   -0.096595
     6  H    0.203745
     7  C    0.636250
     8  C   -0.105531
     9  H    0.169399
    10  O   -0.543624
    11  C   -0.541248
    12  H    0.138867
    13  H    0.235866
    14  H    0.198051
    15  C   -0.500822
    16  H    0.146890
    17  H    0.114564
    18  H    0.250452
    19  N   -0.589124
    20  H    0.366584
    21  C   -0.053772
    22  H    0.180574
    23  C    0.608589
    24  C   -0.109890
    25  H    0.162534
    26  O   -0.537969
    27  C   -0.258980
    28  H    0.158597
    29  H    0.129758
    30  C   -0.476882
    31  H    0.152475
    32  H    0.171509
    33  H    0.172907
    34  C   -0.461565
    35  H    0.164575
    36  H    0.161198
    37  H    0.142399
    38  N   -0.583965
    39  H    0.351936
    40  C   -0.077136
    41  H    0.197033
    42  C    0.629946
    43  C   -0.408153
    44  H    0.234203
    45  H    0.158956
    46  O   -0.526197
    47  C    0.177747
    48  C   -0.189557
    49  H    0.178965
    50  C   -0.180312
    51  H    0.151233
    52  C   -0.167245
    53  H    0.166318
    54  C   -0.148818
    55  H    0.157102
    56  C   -0.201470
    57  H    0.153777
    58  N   -0.619297
    59  H    0.385815
    60  C   -0.077010
    61  H    0.182512
    62  C    0.613995
    63  C   -0.271197
    64  H    0.146516
    65  H    0.161034
    66  O   -0.526547
    67  C   -0.068948
    68  H    0.119182
    69  C   -0.442414
    70  H    0.146518
    71  H    0.140117
    72  H    0.142395
    73  C   -0.457760
    74  H    0.143716
    75  H    0.143593
    76  H    0.156480
    77  N   -0.600270
    78  H    0.354835
    79  C   -0.066556
    80  H    0.209431
    81  C    0.603885
    82  C   -0.304231
    83  H    0.142257
    84  H    0.174099
    85  O   -0.546741
    86  C   -0.390549
    87  H    0.120971
    88  H    0.200372
    89  C    0.632376
    90  O   -0.588447
    91  O   -0.602378
    92  N   -0.635661
    93  H    0.401271
    94  C   -0.061130
    95  H    0.178628
    96  C    0.615846
    97  C   -0.368661
    98  H    0.179085
    99  H    0.189235
   100  O   -0.543467
   101  C    0.589807
   102  N   -0.736652
   103  H    0.393572
   104  H    0.343415
   105  O   -0.535422
   106  N   -0.590315
   107  H    0.351215
   108  C   -0.049869
   109  H    0.159879
   110  C    0.665349
   111  C   -0.370262
   112  H    0.167597
   113  H    0.170863
   114  O   -0.559519
   115  C    0.133687
   116  C   -0.234691
   117  H    0.155053
   118  C   -0.151821
   119  H    0.150570
   120  C   -0.165264
   121  H    0.158484
   122  C   -0.207614
   123  H    0.135368
   124  O   -0.632321
   125  H    0.415155
   126  C    0.345228
   127  N   -0.604975
   128  H    0.358449
   129  C   -0.052570
   130  H    0.208932
   131  C    0.591010
   132  C   -0.278688
   133  H    0.165004
   134  H    0.198946
   135  O   -0.452445
   136  C   -0.283631
   137  H    0.174396
   138  H    0.132157
   139  C   -0.181362
   140  H    0.168945
   141  H    0.204425
   142  N   -0.594016
   143  H    0.332651
   144  N   -0.848433
   145  H    0.428368
   146  H    0.423709
   147  N   -0.796901
   148  H    0.411640
   149  H    0.330490
   150  C    0.775587
   151  O   -0.582271
   152  H    0.420778
 Sum of Mulliken charges =   1.00000

 Dipole moment (field-independent basis, Debye):
    X=              2.5501    Y=             -3.9590    Z=             18.8764  Tot=             19.4550
 Quadrupole moment (field-independent basis, Debye-Ang):
   XX=           -310.8887   YY=           -408.2467   ZZ=           -271.8986
   XY=            -28.2910   XZ=            -76.6510   YZ=             18.5479

 Normal termination of Gaussian 16 at Mon Aug 15 06:24:12 2022.
