 Gaussian 16, Revision C.01,
 Gaussian 16:  ES64L-G16RevC.01  3-Jul-2019

 ----------------------------------------------------------------------
 # B3LYP/6-31G* empiricaldispersion=gd3bj guess=read geom=check nosymm
 integral(ultrafinegrid)
 ----------------------------------------------------------------------

 ------------------------------------------------------
 Candidate Structure: Conf:304 Charge calc in gas phase
 ------------------------------------------------------
 Structure from the checkpoint file:  "conf-304.chk"
 Charge =  1 Multiplicity = 1

                          Input orientation:
 ---------------------------------------------------------------------
 Center     Atomic      Atomic             Coordinates (Angstroms)
 Number     Number       Type             X           Y           Z
 ---------------------------------------------------------------------
      1          7           0       -7.641819   -3.064265    9.242779
      2          1           0       -8.462270   -3.661714    9.369839
      3          1           0       -6.827869   -3.651906    8.866308
      4          1           0       -7.404646   -2.632710   10.139594
      5          6           0       -7.804293   -2.052952    8.125061
      6          1           0       -8.859517   -2.019839    7.845886
      7          6           0       -6.932221   -2.676906    7.004427
      8          6           0       -7.321168   -0.657948    8.592417
      9          1           0       -7.846566   -0.469023    9.541139
     10          8           0       -6.163401   -3.598993    7.332798
     11          6           0       -5.807111   -0.625338    8.843577
     12          1           0       -5.254151   -0.772001    7.910816
     13          1           0       -5.520756    0.347469    9.251893
     14          1           0       -5.467306   -1.389402    9.553686
     15          6           0       -7.750573    0.445167    7.614630
     16          1           0       -7.204998    0.402345    6.667464
     17          1           0       -8.824371    0.401734    7.399627
     18          1           0       -7.544557    1.421105    8.063292
     19          7           0       -7.050807   -2.162215    5.793876
     20          1           0       -7.602793   -1.320303    5.618016
     21          6           0       -6.123177   -2.441808    4.696478
     22          1           0       -5.125023   -2.554109    5.129698
     23          6           0       -6.134901   -1.139433    3.872183
     24          6           0       -6.502112   -3.739889    3.940533
     25          1           0       -6.614125   -4.490415    4.734480
     26          8           0       -6.874104   -0.199814    4.199022
     27          6           0       -5.394436   -4.255405    2.998530
     28          1           0       -5.356541   -3.649836    2.084947
     29          1           0       -5.707636   -5.253323    2.668418
     30          6           0       -7.837623   -3.593194    3.205239
     31          1           0       -7.762354   -2.856578    2.397367
     32          1           0       -8.640313   -3.275571    3.880004
     33          1           0       -8.134737   -4.547104    2.758280
     34          6           0       -3.997822   -4.354497    3.624517
     35          1           0       -3.318088   -4.886432    2.952591
     36          1           0       -3.542793   -3.375766    3.819076
     37          1           0       -4.028574   -4.899152    4.575848
     38          7           0       -5.287229   -1.104022    2.842584
     39          1           0       -4.643880   -1.871323    2.667303
     40          6           0       -4.886176    0.106373    2.153620
     41          1           0       -5.769765    0.630877    1.778389
     42          6           0       -4.012358   -0.377389    0.989979
     43          6           0       -4.081417    1.070483    3.094223
     44          1           0       -4.810016    1.636406    3.680710
     45          1           0       -3.521843    1.775883    2.470720
     46          8           0       -3.508564   -1.499748    1.010063
     47          6           0       -3.147571    0.315514    4.010531
     48          6           0       -3.559228   -0.034442    5.303831
     49          1           0       -4.519558    0.324895    5.666959
     50          6           0       -1.896027   -0.122425    3.560557
     51          1           0       -1.546742    0.179992    2.579368
     52          6           0       -2.755535   -0.832346    6.118905
     53          1           0       -3.082081   -1.091445    7.123160
     54          6           0       -1.092588   -0.921620    4.374091
     55          1           0       -0.126096   -1.254940    4.007757
     56          6           0       -1.522289   -1.289210    5.650123
     57          1           0       -0.894675   -1.912457    6.280456
     58          7           0       -3.819133    0.509693   -0.014513
     59          1           0       -4.101162    1.467603    0.152861
     60          6           0       -2.686324    0.336756   -0.922469
     61          1           0       -2.770530   -0.652940   -1.376372
     62          6           0       -1.382993    0.460956   -0.121264
     63          6           0       -2.715983    1.446348   -1.988175
     64          1           0       -2.782337    2.403981   -1.453241
     65          1           0       -3.632760    1.338419   -2.582283
     66          8           0       -1.238447    1.383336    0.686044
     67          6           0       -1.490554    1.496680   -2.918548
     68          1           0       -0.591617    1.543491   -2.289471
     69          6           0       -1.364589    0.262097   -3.818082
     70          1           0       -2.234664    0.177911   -4.481944
     71          1           0       -1.279157   -0.668820   -3.249528
     72          1           0       -0.464369    0.344913   -4.433486
     73          6           0       -1.519866    2.775185   -3.764765
     74          1           0       -2.377783    2.774621   -4.449066
     75          1           0       -0.603504    2.848962   -4.357159
     76          1           0       -1.598599    3.670082   -3.134078
     77          7           0       -0.429291   -0.442316   -0.411117
     78          1           0       -0.584189   -1.129317   -1.143041
     79          6           0        0.977468   -0.189239   -0.141376
     80          1           0        1.132119    0.890608   -0.133709
     81          6           0        1.727113   -0.760284   -1.360422
     82          6           0        1.405318   -0.711694    1.246955
     83          1           0        1.045883   -1.743337    1.347089
     84          1           0        0.850199   -0.106173    1.971416
     85          8           0        1.171308   -1.503811   -2.169070
     86          6           0        2.902042   -0.683421    1.583539
     87          1           0        3.047892   -1.030956    2.610924
     88          1           0        3.437672   -1.405444    0.952189
     89          6           0        3.686845    0.629585    1.439042
     90          8           0        4.766590    0.711891    2.056944
     91          8           0        3.254195    1.518700    0.609023
     92          7           0        2.999993   -0.310034   -1.499365
     93          1           0        3.294055    0.389028   -0.812819
     94          6           0        3.640226   -0.266538   -2.797960
     95          1           0        2.967564   -0.761556   -3.502552
     96          6           0        5.014162   -0.932205   -2.787446
     97          6           0        3.849476    1.208968   -3.216267
     98          1           0        4.536777    1.674374   -2.502605
     99          1           0        4.307883    1.245915   -4.208256
    100          8           0        5.891123   -0.613890   -1.980848
    101          6           0        2.511727    1.941820   -3.262701
    102          7           0        2.195424    2.654906   -2.137756
    103          1           0        1.251347    3.018021   -2.093871
    104          1           0        2.639292    2.453079   -1.246768
    105          8           0        1.785700    1.887274   -4.247509
    106          7           0        5.235643   -1.838772   -3.773774
    107          1           0        4.536441   -1.908865   -4.501746
    108          6           0        6.605208   -2.155433   -4.147738
    109          1           0        7.099737   -2.618706   -3.288938
    110          6           0        7.328146   -0.842828   -4.512854
    111          6           0        6.637569   -3.128681   -5.350831
    112          1           0        6.237345   -4.096984   -5.030494
    113          1           0        5.979302   -2.734045   -6.133827
    114          8           0        6.762933    0.030120   -5.165538
    115          6           0        8.049825   -3.235601   -5.875148
    116          6           0        8.464495   -2.429008   -6.941966
    117          1           0        7.726999   -1.853105   -7.493521
    118          6           0        9.020302   -3.962910   -5.177579
    119          1           0        8.723181   -4.612378   -4.357354
    120          6           0        9.811219   -2.289040   -7.260294
    121          1           0       10.134148   -1.626173   -8.055324
    122          6           0       10.374205   -3.827048   -5.478970
    123          1           0       11.121004   -4.359234   -4.894920
    124          8           0       12.090129   -2.654765   -6.738692
    125          1           0       12.639842   -3.125217   -6.091514
    126          6           0       10.769679   -2.951725   -6.492491
    127          7           0        8.604181   -0.747043   -4.072336
    128          1           0        9.042365   -1.530996   -3.605674
    129          6           0        9.484078    0.342136   -4.468647
    130          1           0        9.069893    0.788059   -5.374365
    131          6           0       10.833655   -0.298682   -4.770065
    132          6           0        9.594679    1.400214   -3.353777
    133          1           0       10.059769    0.925888   -2.479823
    134          1           0       10.268798    2.201264   -3.684327
    135          8           0       11.351073   -1.117511   -4.036707
    136          6           0        8.219767    1.963645   -2.979735
    137          1           0        7.795178    2.515676   -3.826652
    138          1           0        7.533832    1.136829   -2.777687
    139          6           0        8.281608    2.863949   -1.745184
    140          1           0        8.705449    2.321646   -0.894477
    141          1           0        8.917623    3.737542   -1.925101
    142          7           0        6.969193    3.358891   -1.326857
    143          1           0        6.595331    4.170523   -1.798186
    144          7           0        6.446917    1.523550    0.019910
    145          1           0        5.894075    1.201430    0.841604
    146          1           0        6.682274    0.808362   -0.663320
    147          7           0        5.139627    3.416067    0.111280
    148          1           0        4.365226    2.833846    0.505826
    149          1           0        5.046962    4.415342    0.005658
    150          6           0        6.178713    2.760341   -0.411432
    151          8           0       11.359422    0.102434   -5.935017
    152          1           0       12.104393   -0.503628   -6.136189
 ---------------------------------------------------------------------

 SCF Done:  E(RB3LYP) =  -3587.00617824     A.U. after    2 cycles

 Alpha  occ. eigenvalues --  -19.26064 -19.24954 -19.23933 -19.20896 -19.19609
 Alpha  occ. eigenvalues --  -19.19048 -19.18274 -19.16800 -19.16670 -19.16193
 Alpha  occ. eigenvalues --  -19.15774 -19.14908 -19.13292 -14.59079 -14.48193
 Alpha  occ. eigenvalues --  -14.44629 -14.43800 -14.42616 -14.42303 -14.41934
 Alpha  occ. eigenvalues --  -14.41500 -14.40387 -14.40050 -14.39726 -14.39615
 Alpha  occ. eigenvalues --  -10.42537 -10.39762 -10.38985 -10.37657 -10.37648
 Alpha  occ. eigenvalues --  -10.35688 -10.34855 -10.33940 -10.33887 -10.33421
 Alpha  occ. eigenvalues --  -10.33400 -10.33040 -10.32522 -10.31975 -10.31022
 Alpha  occ. eigenvalues --  -10.30225 -10.29808 -10.29433 -10.29353 -10.29218
 Alpha  occ. eigenvalues --  -10.28982 -10.28980 -10.28511 -10.27743 -10.27013
 Alpha  occ. eigenvalues --  -10.25958 -10.25619 -10.25486 -10.25401 -10.25251
 Alpha  occ. eigenvalues --  -10.25167 -10.25090 -10.25055 -10.24774 -10.24649
 Alpha  occ. eigenvalues --  -10.24566 -10.24514 -10.24419 -10.24406 -10.24370
 Alpha  occ. eigenvalues --  -10.24111 -10.24026 -10.23804 -10.23796 -10.23763
 Alpha  occ. eigenvalues --  -10.22988 -10.22969 -10.22079 -10.20443 -10.20264
 Alpha  occ. eigenvalues --   -1.18550  -1.16161  -1.13183  -1.12618  -1.11546
 Alpha  occ. eigenvalues --   -1.10996  -1.10292  -1.08818  -1.08560  -1.08023
 Alpha  occ. eigenvalues --   -1.07750  -1.07405  -1.07170  -1.07074  -1.05128
 Alpha  occ. eigenvalues --   -1.01123  -0.99223  -0.98851  -0.98572  -0.98364
 Alpha  occ. eigenvalues --   -0.97794  -0.97385  -0.96857  -0.94582  -0.94481
 Alpha  occ. eigenvalues --   -0.94337  -0.91446  -0.91037  -0.89922  -0.86510
 Alpha  occ. eigenvalues --   -0.86417  -0.85623  -0.85164  -0.85001  -0.83869
 Alpha  occ. eigenvalues --   -0.82026  -0.81909  -0.81234  -0.80739  -0.80699
 Alpha  occ. eigenvalues --   -0.80177  -0.80149  -0.79408  -0.78238  -0.78172
 Alpha  occ. eigenvalues --   -0.75811  -0.74794  -0.74777  -0.73424  -0.73188
 Alpha  occ. eigenvalues --   -0.73084  -0.71919  -0.71472  -0.70978  -0.69963
 Alpha  occ. eigenvalues --   -0.69746  -0.69380  -0.68371  -0.67812  -0.67753
 Alpha  occ. eigenvalues --   -0.67536  -0.66950  -0.66522  -0.66167  -0.65774
 Alpha  occ. eigenvalues --   -0.65291  -0.65113  -0.64857  -0.64325  -0.64052
 Alpha  occ. eigenvalues --   -0.63971  -0.63363  -0.63256  -0.62919  -0.61857
 Alpha  occ. eigenvalues --   -0.61545  -0.61133  -0.60874  -0.60415  -0.59806
 Alpha  occ. eigenvalues --   -0.59563  -0.59130  -0.58140  -0.57968  -0.57457
 Alpha  occ. eigenvalues --   -0.57131  -0.56825  -0.56389  -0.56089  -0.56051
 Alpha  occ. eigenvalues --   -0.55774  -0.55499  -0.54963  -0.54808  -0.54341
 Alpha  occ. eigenvalues --   -0.54286  -0.53898  -0.53824  -0.53548  -0.53312
 Alpha  occ. eigenvalues --   -0.52998  -0.52954  -0.52782  -0.52469  -0.52055
 Alpha  occ. eigenvalues --   -0.51929  -0.51685  -0.51328  -0.51237  -0.51165
 Alpha  occ. eigenvalues --   -0.51044  -0.50940  -0.50683  -0.50412  -0.50129
 Alpha  occ. eigenvalues --   -0.49954  -0.49845  -0.49627  -0.49593  -0.49459
 Alpha  occ. eigenvalues --   -0.48984  -0.48953  -0.48519  -0.48152  -0.48022
 Alpha  occ. eigenvalues --   -0.47708  -0.47533  -0.47442  -0.47126  -0.47076
 Alpha  occ. eigenvalues --   -0.46831  -0.46652  -0.46571  -0.46469  -0.46447
 Alpha  occ. eigenvalues --   -0.46298  -0.46208  -0.46089  -0.46065  -0.45741
 Alpha  occ. eigenvalues --   -0.45505  -0.45270  -0.45023  -0.44900  -0.44616
 Alpha  occ. eigenvalues --   -0.44564  -0.44146  -0.44027  -0.43970  -0.43834
 Alpha  occ. eigenvalues --   -0.43638  -0.43470  -0.43434  -0.42842  -0.42612
 Alpha  occ. eigenvalues --   -0.42488  -0.42038  -0.41756  -0.41656  -0.41573
 Alpha  occ. eigenvalues --   -0.41425  -0.41347  -0.41242  -0.41079  -0.41040
 Alpha  occ. eigenvalues --   -0.40843  -0.40279  -0.40246  -0.40026  -0.39885
 Alpha  occ. eigenvalues --   -0.39636  -0.39593  -0.39514  -0.39411  -0.39154
 Alpha  occ. eigenvalues --   -0.38464  -0.38217  -0.38072  -0.37447  -0.37319
 Alpha  occ. eigenvalues --   -0.36747  -0.36432  -0.36248  -0.35052  -0.34194
 Alpha  occ. eigenvalues --   -0.34008  -0.33809  -0.33168  -0.33076  -0.33010
 Alpha  occ. eigenvalues --   -0.32640  -0.32478  -0.31697  -0.30841  -0.30732
 Alpha  occ. eigenvalues --   -0.30689  -0.30506  -0.30423  -0.30237  -0.30175
 Alpha  occ. eigenvalues --   -0.30041  -0.29644  -0.29485  -0.29116  -0.28849
 Alpha  occ. eigenvalues --   -0.27394  -0.27302
 Alpha virt. eigenvalues --   -0.11457  -0.10542  -0.07314  -0.06501  -0.06225
 Alpha virt. eigenvalues --   -0.06219  -0.05412  -0.05402  -0.05113  -0.04720
 Alpha virt. eigenvalues --   -0.04552  -0.04421  -0.03936  -0.03404  -0.02500

 Mulliken charges:
               1
     1  N   -0.763289
     2  H    0.414328
     3  H    0.435520
     4  H    0.409504
     5  C   -0.104347
     6  H    0.209441
     7  C    0.647505
     8  C   -0.112192
     9  H    0.155824
    10  O   -0.553451
    11  C   -0.482185
    12  H    0.197805
    13  H    0.193719
    14  H    0.140590
    15  C   -0.491472
    16  H    0.204806
    17  H    0.162914
    18  H    0.186399
    19  N   -0.600007
    20  H    0.380411
    21  C   -0.089153
    22  H    0.209990
    23  C    0.637444
    24  C   -0.075584
    25  H    0.149922
    26  O   -0.567391
    27  C   -0.289507
    28  H    0.163753
    29  H    0.153541
    30  C   -0.463822
    31  H    0.166436
    32  H    0.136529
    33  H    0.165050
    34  C   -0.475011
    35  H    0.171036
    36  H    0.164902
    37  H    0.151050
    38  N   -0.631216
    39  H    0.395966
    40  C   -0.044118
    41  H    0.182101
    42  C    0.640470
    43  C   -0.391686
    44  H    0.172100
    45  H    0.186909
    46  O   -0.540943
    47  C    0.149179
    48  C   -0.210227
    49  H    0.123526
    50  C   -0.181837
    51  H    0.200032
    52  C   -0.140908
    53  H    0.117101
    54  C   -0.142251
    55  H    0.146972
    56  C   -0.130987
    57  H    0.137284
    58  N   -0.601921
    59  H    0.337251
    60  C   -0.044534
    61  H    0.173499
    62  C    0.622960
    63  C   -0.282225
    64  H    0.139390
    65  H    0.149918
    66  O   -0.566664
    67  C   -0.090065
    68  H    0.130480
    69  C   -0.457535
    70  H    0.132867
    71  H    0.140050
    72  H    0.184070
    73  C   -0.464420
    74  H    0.138056
    75  H    0.186364
    76  H    0.127248
    77  N   -0.591123
    78  H    0.363614
    79  C   -0.062749
    80  H    0.193352
    81  C    0.584556
    82  C   -0.260134
    83  H    0.142801
    84  H    0.171185
    85  O   -0.537546
    86  C   -0.372470
    87  H    0.165570
    88  H    0.172903
    89  C    0.599272
    90  O   -0.559371
    91  O   -0.637301
    92  N   -0.630583
    93  H    0.382916
    94  C   -0.086659
    95  H    0.194806
    96  C    0.672072
    97  C   -0.383825
    98  H    0.156013
    99  H    0.205501
   100  O   -0.562743
   101  C    0.590144
   102  N   -0.776628
   103  H    0.347627
   104  H    0.377717
   105  O   -0.505472
   106  N   -0.590222
   107  H    0.347362
   108  C   -0.028653
   109  H    0.167857
   110  C    0.638805
   111  C   -0.381684
   112  H    0.171556
   113  H    0.162742
   114  O   -0.556613
   115  C    0.146445
   116  C   -0.180844
   117  H    0.151258
   118  C   -0.208229
   119  H    0.136996
   120  C   -0.156829
   121  H    0.153786
   122  C   -0.166827
   123  H    0.137424
   124  O   -0.661218
   125  H    0.420303
   126  C    0.340546
   127  N   -0.594297
   128  H    0.352280
   129  C   -0.026987
   130  H    0.198253
   131  C    0.593954
   132  C   -0.272723
   133  H    0.156902
   134  H    0.154824
   135  O   -0.486956
   136  C   -0.286187
   137  H    0.155678
   138  H    0.187800
   139  C   -0.154870
   140  H    0.186121
   141  H    0.165151
   142  N   -0.596520
   143  H    0.342263
   144  N   -0.801757
   145  H    0.422416
   146  H    0.394321
   147  N   -0.782854
   148  H    0.417993
   149  H    0.340209
   150  C    0.743660
   151  O   -0.568450
   152  H    0.429109
 Sum of Mulliken charges =   1.00000

 Dipole moment (field-independent basis, Debye):
    X=            -15.6512    Y=             -6.7098    Z=             25.3488  Tot=             30.5376
 Quadrupole moment (field-independent basis, Debye-Ang):
   XX=            -62.3943   YY=           -371.8295   ZZ=           -146.3894
   XY=             74.8535   XZ=           -315.8180   YZ=            -73.0053

 Normal termination of Gaussian 16 at Mon Aug 15 06:24:54 2022.
