 Gaussian 16, Revision C.01,
 Gaussian 16:  ES64L-G16RevC.01  3-Jul-2019

 ----------------------------------------------------------------------
 # B3LYP/6-31G* empiricaldispersion=gd3bj guess=read geom=check nosymm
 integral(ultrafinegrid)
 ----------------------------------------------------------------------

 ------------------------------------------------------
 Candidate Structure: Conf:876 Charge calc in gas phase
 ------------------------------------------------------
 Structure from the checkpoint file:  "conf-876.chk"
 Charge =  1 Multiplicity = 1

                          Input orientation:
 ---------------------------------------------------------------------
 Center     Atomic      Atomic             Coordinates (Angstroms)
 Number     Number       Type             X           Y           Z
 ---------------------------------------------------------------------
      1          7           0       -0.033985   -0.812353    6.788767
      2          1           0        0.124786   -1.816751    6.549148
      3          1           0        0.755252   -0.272640    6.360479
      4          1           0       -0.089956   -0.679541    7.799637
      5          6           0       -1.233345   -0.284702    6.045092
      6          1           0       -1.971359   -1.088380    5.978066
      7          6           0       -0.625172    0.052340    4.667272
      8          6           0       -1.826455    0.946334    6.764519
      9          1           0       -1.009887    1.674458    6.873996
     10          8           0        0.581989    0.341626    4.631913
     11          6           0       -2.937255    1.595263    5.924481
     12          1           0       -3.739017    0.880739    5.700849
     13          1           0       -3.383821    2.420464    6.485840
     14          1           0       -2.573306    2.003823    4.980193
     15          6           0       -2.360330    0.571670    8.155631
     16          1           0       -3.171043   -0.162175    8.078686
     17          1           0       -1.597088    0.161533    8.831090
     18          1           0       -2.761602    1.459931    8.651447
     19          7           0       -1.448771    0.008357    3.632767
     20          1           0       -2.451079   -0.164218    3.724878
     21          6           0       -1.078993    0.416648    2.283782
     22          1           0       -0.390137    1.261059    2.351043
     23          6           0       -2.401908    0.837974    1.637280
     24          6           0       -0.413190   -0.763779    1.513601
     25          1           0        0.203270   -1.280966    2.257319
     26          8           0       -3.466507    0.404618    2.094226
     27          6           0        0.528190   -0.266568    0.410007
     28          1           0       -0.043637    0.323143   -0.314375
     29          1           0        0.876781   -1.150920   -0.139665
     30          6           0       -1.446919   -1.749738    0.957732
     31          1           0       -2.033498   -1.295546    0.152658
     32          1           0       -2.138190   -2.094574    1.733326
     33          1           0       -0.935631   -2.628025    0.551648
     34          6           0        1.729042    0.530426    0.929516
     35          1           0        2.481983    0.640400    0.145684
     36          1           0        1.441747    1.535623    1.248142
     37          1           0        2.197007    0.020946    1.781189
     38          7           0       -2.277061    1.610657    0.551598
     39          1           0       -1.394395    2.122965    0.381175
     40          6           0       -3.428558    1.991889   -0.237529
     41          1           0       -4.286021    1.468325    0.197927
     42          6           0       -3.235794    1.406866   -1.650677
     43          6           0       -3.665566    3.516234   -0.132339
     44          1           0       -4.581722    3.778141   -0.675744
     45          1           0       -2.827526    4.046060   -0.599792
     46          8           0       -2.791103    0.264560   -1.793695
     47          6           0       -3.792117    3.934608    1.315707
     48          6           0       -5.025334    3.855240    1.970518
     49          1           0       -5.907399    3.542250    1.416552
     50          6           0       -2.661472    4.331773    2.041493
     51          1           0       -1.695420    4.377096    1.546416
     52          6           0       -5.135949    4.170920    3.324374
     53          1           0       -6.103119    4.112320    3.815456
     54          6           0       -2.770621    4.646899    3.396514
     55          1           0       -1.888225    4.965527    3.945633
     56          6           0       -4.007033    4.569840    4.041362
     57          1           0       -4.093348    4.830935    5.092822
     58          7           0       -3.585162    2.184223   -2.703096
     59          1           0       -3.808866    3.157477   -2.550061
     60          6           0       -3.396039    1.750937   -4.094017
     61          1           0       -3.585661    0.675439   -4.105118
     62          6           0       -1.920668    2.004016   -4.472857
     63          6           0       -4.351951    2.485719   -5.028521
     64          1           0       -4.188072    2.093831   -6.040192
     65          1           0       -4.056099    3.540901   -5.070339
     66          8           0       -1.556227    2.997436   -5.090572
     67          6           0       -5.840545    2.358856   -4.663544
     68          1           0       -5.991654    2.810073   -3.671557
     69          6           0       -6.687515    3.146916   -5.670085
     70          1           0       -6.589553    2.722662   -6.677054
     71          1           0       -6.376703    4.196818   -5.719475
     72          1           0       -7.748503    3.119902   -5.398658
     73          6           0       -6.298990    0.897278   -4.585622
     74          1           0       -6.110146    0.378861   -5.534390
     75          1           0       -7.374207    0.838712   -4.384229
     76          1           0       -5.784682    0.345369   -3.791290
     77          7           0       -1.068765    1.051646   -3.998552
     78          1           0       -1.456027    0.343461   -3.380482
     79          6           0        0.359641    1.266450   -4.012297
     80          1           0        0.556667    1.931078   -4.861109
     81          6           0        1.061839   -0.078303   -4.254441
     82          6           0        0.890689    1.928607   -2.715763
     83          1           0        1.879729    2.358649   -2.914483
     84          1           0        1.023077    1.150833   -1.954815
     85          8           0        0.486270   -1.062760   -4.711303
     86          6           0        0.019577    3.040187   -2.125109
     87          1           0       -0.010677    3.896498   -2.805915
     88          1           0       -0.999770    2.683598   -1.983435
     89          6           0        0.611608    3.459227   -0.775587
     90          8           0       -0.044860    3.261557    0.276255
     91          8           0        1.787270    3.947210   -0.833719
     92          7           0        2.384822   -0.121863   -3.905874
     93          1           0        2.792611    0.671077   -3.430555
     94          6           0        3.056811   -1.388575   -3.659932
     95          1           0        2.324521   -2.171822   -3.869646
     96          6           0        3.423068   -1.417234   -2.173827
     97          6           0        4.298595   -1.577366   -4.535772
     98          1           0        5.017477   -0.775816   -4.343443
     99          1           0        4.796800   -2.518022   -4.267487
    100          8           0        3.917041   -0.416808   -1.620985
    101          6           0        4.067999   -1.614747   -6.054302
    102          7           0        2.811335   -1.913127   -6.490494
    103          1           0        2.686104   -1.886036   -7.494246
    104          1           0        1.974204   -1.803398   -5.924183
    105          8           0        5.020269   -1.458277   -6.802529
    106          7           0        3.166405   -2.567603   -1.522745
    107          1           0        2.787255   -3.339866   -2.055350
    108          6           0        3.259882   -2.734321   -0.065911
    109          1           0        2.962576   -1.774378    0.364335
    110          6           0        4.708095   -3.001603    0.403080
    111          6           0        2.309604   -3.836432    0.405339
    112          1           0        1.444669   -3.862162   -0.267693
    113          1           0        2.829848   -4.797834    0.317139
    114          8           0        5.036806   -4.006617    1.017022
    115          6           0        1.795816   -3.673764    1.823506
    116          6           0        2.454994   -2.923594    2.805704
    117          1           0        3.395759   -2.426273    2.598427
    118          6           0        0.602446   -4.316751    2.173512
    119          1           0        0.070043   -4.902226    1.429292
    120          6           0        1.933306   -2.812052    4.095825
    121          1           0        2.460154   -2.236010    4.848844
    122          6           0        0.070004   -4.216580    3.455638
    123          1           0       -0.865192   -4.714739    3.701002
    124          8           0        0.249334   -3.346257    5.713850
    125          1           0       -0.390205   -4.058826    5.871511
    126          6           0        0.747092   -3.464425    4.411093
    127          7           0        5.547711   -1.973018    0.129412
    128          1           0        5.152894   -1.174859   -0.360387
    129          6           0        6.835897   -1.843533    0.768851
    130          1           0        7.525167   -2.619231    0.422819
    131          6           0        6.690881   -1.985090    2.287165
    132          6           0        7.407679   -0.450478    0.431042
    133          1           0        8.429764   -0.379857    0.815387
    134          1           0        7.473799   -0.387368   -0.662884
    135          8           0        5.713291   -1.673674    2.932393
    136          6           0        6.539551    0.694394    0.979176
    137          1           0        5.476857    0.441744    0.895505
    138          1           0        6.722219    0.824499    2.051778
    139          6           0        6.778770    2.023410    0.257677
    140          1           0        7.803383    2.377699    0.406765
    141          1           0        6.640962    1.918066   -0.823162
    142          7           0        5.877592    3.074732    0.723658
    143          1           0        6.082210    3.481440    1.626319
    144          7           0        4.134910    2.566303   -0.767259
    145          1           0        3.190755    2.859100   -1.064304
    146          1           0        4.437367    1.625992   -0.988213
    147          7           0        3.838976    4.191502    0.824854
    148          1           0        2.880894    4.290648    0.410459
    149          1           0        4.249550    4.948469    1.351885
    150          6           0        4.620123    3.263405    0.266011
    151          8           0        7.838202   -2.423518    2.835136
    152          1           0        7.698810   -2.465322    3.800247
 ---------------------------------------------------------------------

 SCF Done:  E(RB3LYP) =  -3587.01979150     A.U. after    1 cycles

 Alpha  occ. eigenvalues --  -19.30579 -19.28158 -19.23572 -19.23398 -19.22518
 Alpha  occ. eigenvalues --  -19.20133 -19.19977 -19.18628 -19.18493 -19.16969
 Alpha  occ. eigenvalues --  -19.16294 -19.16148 -19.15881 -14.55898 -14.47881
 Alpha  occ. eigenvalues --  -14.47736 -14.46181 -14.44921 -14.44585 -14.44275
 Alpha  occ. eigenvalues --  -14.43737 -14.43507 -14.41297 -14.41050 -14.40037
 Alpha  occ. eigenvalues --  -10.42543 -10.40507 -10.40195 -10.40020 -10.37483
 Alpha  occ. eigenvalues --  -10.36930 -10.36905 -10.35735 -10.35251 -10.34750
 Alpha  occ. eigenvalues --  -10.34277 -10.34005 -10.33931 -10.33282 -10.32851
 Alpha  occ. eigenvalues --  -10.32722 -10.32668 -10.32187 -10.30550 -10.30047
 Alpha  occ. eigenvalues --  -10.29778 -10.29505 -10.29318 -10.28989 -10.28852
 Alpha  occ. eigenvalues --  -10.28548 -10.28513 -10.28327 -10.28079 -10.28032
 Alpha  occ. eigenvalues --  -10.27579 -10.27502 -10.27095 -10.26190 -10.26112
 Alpha  occ. eigenvalues --  -10.26096 -10.25234 -10.24777 -10.24572 -10.24480
 Alpha  occ. eigenvalues --  -10.24458 -10.24359 -10.24025 -10.23945 -10.23825
 Alpha  occ. eigenvalues --  -10.23574 -10.23407 -10.23119 -10.22014 -10.21770
 Alpha  occ. eigenvalues --   -1.19144  -1.17465  -1.15832  -1.15001  -1.12142
 Alpha  occ. eigenvalues --   -1.11935  -1.11366  -1.10967  -1.10535  -1.10060
 Alpha  occ. eigenvalues --   -1.10026  -1.09158  -1.08775  -1.07959  -1.03792
 Alpha  occ. eigenvalues --   -1.03015  -1.01751  -1.01437  -1.01087  -1.00308
 Alpha  occ. eigenvalues --   -0.99582  -0.98977  -0.98160  -0.98137  -0.94951
 Alpha  occ. eigenvalues --   -0.94832  -0.92903  -0.91081  -0.90234  -0.88949
 Alpha  occ. eigenvalues --   -0.88632  -0.87192  -0.86514  -0.85128  -0.84948
 Alpha  occ. eigenvalues --   -0.84563  -0.84158  -0.84055  -0.82243  -0.81244
 Alpha  occ. eigenvalues --   -0.80616  -0.79758  -0.79415  -0.79048  -0.78279
 Alpha  occ. eigenvalues --   -0.78174  -0.77105  -0.76302  -0.74707  -0.73433
 Alpha  occ. eigenvalues --   -0.72935  -0.72674  -0.72232  -0.71944  -0.71194
 Alpha  occ. eigenvalues --   -0.71067  -0.70836  -0.70529  -0.70163  -0.69082
 Alpha  occ. eigenvalues --   -0.68851  -0.68552  -0.68440  -0.68050  -0.67521
 Alpha  occ. eigenvalues --   -0.67119  -0.66622  -0.66308  -0.66031  -0.65035
 Alpha  occ. eigenvalues --   -0.64581  -0.64370  -0.64271  -0.64180  -0.64039
 Alpha  occ. eigenvalues --   -0.63497  -0.63087  -0.62724  -0.61656  -0.61267
 Alpha  occ. eigenvalues --   -0.60964  -0.60190  -0.59753  -0.59609  -0.59332
 Alpha  occ. eigenvalues --   -0.58807  -0.58316  -0.58098  -0.57562  -0.57327
 Alpha  occ. eigenvalues --   -0.57086  -0.56717  -0.56627  -0.56478  -0.56233
 Alpha  occ. eigenvalues --   -0.55946  -0.55785  -0.55511  -0.55369  -0.54880
 Alpha  occ. eigenvalues --   -0.54759  -0.54665  -0.54340  -0.54098  -0.54008
 Alpha  occ. eigenvalues --   -0.53699  -0.53309  -0.53160  -0.52908  -0.52869
 Alpha  occ. eigenvalues --   -0.52103  -0.51930  -0.51897  -0.51592  -0.51216
 Alpha  occ. eigenvalues --   -0.51182  -0.50978  -0.50673  -0.50532  -0.50455
 Alpha  occ. eigenvalues --   -0.50426  -0.50309  -0.50044  -0.49810  -0.49561
 Alpha  occ. eigenvalues --   -0.49406  -0.49179  -0.49021  -0.49002  -0.48885
 Alpha  occ. eigenvalues --   -0.48598  -0.48283  -0.48204  -0.47967  -0.47801
 Alpha  occ. eigenvalues --   -0.47581  -0.47439  -0.47244  -0.47085  -0.47044
 Alpha  occ. eigenvalues --   -0.46687  -0.46530  -0.46275  -0.46111  -0.45871
 Alpha  occ. eigenvalues --   -0.45709  -0.45493  -0.45402  -0.45283  -0.45099
 Alpha  occ. eigenvalues --   -0.45012  -0.44892  -0.44669  -0.44557  -0.44394
 Alpha  occ. eigenvalues --   -0.44154  -0.44016  -0.43824  -0.43719  -0.43306
 Alpha  occ. eigenvalues --   -0.43192  -0.42994  -0.42891  -0.42380  -0.42278
 Alpha  occ. eigenvalues --   -0.42188  -0.42114  -0.41777  -0.41205  -0.41100
 Alpha  occ. eigenvalues --   -0.40947  -0.40758  -0.40445  -0.40123  -0.39827
 Alpha  occ. eigenvalues --   -0.39493  -0.39218  -0.38987  -0.38353  -0.37683
 Alpha  occ. eigenvalues --   -0.37659  -0.37530  -0.37427  -0.37330  -0.36850
 Alpha  occ. eigenvalues --   -0.36428  -0.36085  -0.35406  -0.34489  -0.34184
 Alpha  occ. eigenvalues --   -0.34097  -0.33850  -0.33515  -0.33115  -0.33098
 Alpha  occ. eigenvalues --   -0.32572  -0.32264  -0.31862  -0.31783  -0.31487
 Alpha  occ. eigenvalues --   -0.31191  -0.30942  -0.30149  -0.30010  -0.29727
 Alpha  occ. eigenvalues --   -0.29657  -0.29495
 Alpha virt. eigenvalues --   -0.09681  -0.09539  -0.09310  -0.08223  -0.07998
 Alpha virt. eigenvalues --   -0.07249  -0.07214  -0.06634  -0.06138  -0.05759
 Alpha virt. eigenvalues --   -0.05587  -0.05374  -0.04747  -0.03867  -0.03625

 Mulliken charges:
               1
     1  N   -0.786086
     2  H    0.448546
     3  H    0.413257
     4  H    0.392570
     5  C   -0.109106
     6  H    0.185181
     7  C    0.662472
     8  C   -0.097392
     9  H    0.160144
    10  O   -0.561175
    11  C   -0.474319
    12  H    0.161983
    13  H    0.173801
    14  H    0.197329
    15  C   -0.468335
    16  H    0.170340
    17  H    0.132124
    18  H    0.192244
    19  N   -0.604008
    20  H    0.368974
    21  C   -0.083018
    22  H    0.201750
    23  C    0.637721
    24  C   -0.081973
    25  H    0.154402
    26  O   -0.567520
    27  C   -0.281458
    28  H    0.161885
    29  H    0.123552
    30  C   -0.481275
    31  H    0.201163
    32  H    0.136926
    33  H    0.131597
    34  C   -0.508551
    35  H    0.143095
    36  H    0.188508
    37  H    0.147135
    38  N   -0.630036
    39  H    0.419512
    40  C   -0.068827
    41  H    0.212567
    42  C    0.628882
    43  C   -0.410291
    44  H    0.152115
    45  H    0.172773
    46  O   -0.540493
    47  C    0.165875
    48  C   -0.163475
    49  H    0.128138
    50  C   -0.197453
    51  H    0.179169
    52  C   -0.130680
    53  H    0.134806
    54  C   -0.148008
    55  H    0.125476
    56  C   -0.132952
    57  H    0.123927
    58  N   -0.607437
    59  H    0.351906
    60  C   -0.073665
    61  H    0.186814
    62  C    0.629516
    63  C   -0.283536
    64  H    0.157480
    65  H    0.159834
    66  O   -0.527216
    67  C   -0.070401
    68  H    0.112700
    69  C   -0.442764
    70  H    0.148350
    71  H    0.145304
    72  H    0.147574
    73  C   -0.454537
    74  H    0.146572
    75  H    0.149705
    76  H    0.149890
    77  N   -0.601027
    78  H    0.367520
    79  C   -0.048543
    80  H    0.214507
    81  C    0.609847
    82  C   -0.331740
    83  H    0.151183
    84  H    0.156964
    85  O   -0.522821
    86  C   -0.346427
    87  H    0.182804
    88  H    0.139827
    89  C    0.605603
    90  O   -0.569390
    91  O   -0.618246
    92  N   -0.587120
    93  H    0.343615
    94  C   -0.100511
    95  H    0.184673
    96  C    0.657330
    97  C   -0.353167
    98  H    0.179767
    99  H    0.180140
   100  O   -0.588134
   101  C    0.592585
   102  N   -0.778372
   103  H    0.346081
   104  H    0.379130
   105  O   -0.497949
   106  N   -0.612551
   107  H    0.356916
   108  C   -0.088425
   109  H    0.211267
   110  C    0.646108
   111  C   -0.383575
   112  H    0.156986
   113  H    0.205865
   114  O   -0.511219
   115  C    0.174766
   116  C   -0.196831
   117  H    0.189294
   118  C   -0.184358
   119  H    0.149413
   120  C   -0.161369
   121  H    0.139969
   122  C   -0.179159
   123  H    0.140493
   124  O   -0.710959
   125  H    0.431140
   126  C    0.343274
   127  N   -0.646872
   128  H    0.382333
   129  C   -0.004370
   130  H    0.197925
   131  C    0.613602
   132  C   -0.321165
   133  H    0.182268
   134  H    0.169683
   135  O   -0.477803
   136  C   -0.289793
   137  H    0.167471
   138  H    0.162344
   139  C   -0.172873
   140  H    0.183739
   141  H    0.182754
   142  N   -0.594779
   143  H    0.346680
   144  N   -0.822108
   145  H    0.428170
   146  H    0.386082
   147  N   -0.784801
   148  H    0.420251
   149  H    0.345702
   150  C    0.791419
   151  O   -0.560515
   152  H    0.419888
 Sum of Mulliken charges =   1.00000

 Dipole moment (field-independent basis, Debye):
    X=              6.7816    Y=             -0.7062    Z=             24.0060  Tot=             24.9555
 Quadrupole moment (field-independent basis, Debye-Ang):
   XX=           -338.0140   YY=           -409.4811   ZZ=           -299.8584
   XY=             25.5053   XZ=             23.4660   YZ=             -8.7074

 Normal termination of Gaussian 16 at Mon Aug 15 06:24:27 2022.
