 Gaussian 16, Revision C.01,
 Gaussian 16:  ES64L-G16RevC.01  3-Jul-2019

 ----------------------------------------------------------------------
 # B3LYP/6-31G* empiricaldispersion=gd3bj guess=read geom=check nosymm
 integral(ultrafinegrid)
 ----------------------------------------------------------------------

 ------------------------------------------------------
 Candidate Structure: Conf:538 Charge calc in gas phase
 ------------------------------------------------------
 Structure from the checkpoint file:  "conf-538.chk"
 Charge =  1 Multiplicity = 1

                          Input orientation:
 ---------------------------------------------------------------------
 Center     Atomic      Atomic             Coordinates (Angstroms)
 Number     Number       Type             X           Y           Z
 ---------------------------------------------------------------------
      1          7           0      -10.514753    1.799381    6.936420
      2          1           0      -11.140548    1.009028    6.758927
      3          1           0       -9.823610    1.514964    7.643345
      4          1           0      -11.067273    2.576615    7.305452
      5          6           0       -9.749192    2.184204    5.716734
      6          1           0      -10.431855    2.242085    4.862327
      7          6           0       -8.725264    1.081461    5.491741
      8          6           0       -9.057424    3.549128    5.897850
      9          1           0       -8.576360    3.520398    6.882235
     10          8           0       -8.042778    0.688654    6.433699
     11          6           0       -7.963064    3.773281    4.850176
     12          1           0       -8.365732    3.699216    3.832768
     13          1           0       -7.537179    4.772523    4.968428
     14          1           0       -7.150306    3.051383    4.952042
     15          6           0      -10.074525    4.690852    5.863904
     16          1           0      -10.516479    4.769445    4.866457
     17          1           0      -10.891159    4.563263    6.580431
     18          1           0       -9.584716    5.639881    6.093428
     19          7           0       -8.644098    0.594622    4.229476
     20          1           0       -9.012821    1.176861    3.489813
     21          6           0       -7.493703   -0.220705    3.832732
     22          1           0       -7.163015   -0.764267    4.718698
     23          6           0       -6.429525    0.767908    3.375230
     24          6           0       -7.833328   -1.219647    2.716409
     25          1           0       -8.144465   -0.628723    1.846384
     26          8           0       -6.593168    1.430512    2.352238
     27          6           0       -8.995536   -2.132024    3.126624
     28          1           0       -9.791640   -1.533547    3.575578
     29          1           0       -8.638748   -2.809125    3.912364
     30          6           0       -6.593022   -2.040476    2.354519
     31          1           0       -6.269948   -2.627004    3.221129
     32          1           0       -5.759214   -1.408930    2.046675
     33          1           0       -6.805277   -2.733641    1.537745
     34          6           0       -9.577600   -2.937377    1.969551
     35          1           0      -10.405142   -3.564721    2.310618
     36          1           0       -9.960973   -2.274567    1.187160
     37          1           0       -8.832769   -3.592010    1.512069
     38          7           0       -5.362586    0.924850    4.192709
     39          1           0       -5.202062    0.190590    4.864421
     40          6           0       -4.171214    1.607310    3.689657
     41          1           0       -4.451079    2.629189    3.435014
     42          6           0       -3.678625    0.888484    2.416882
     43          6           0       -3.085543    1.598097    4.772092
     44          1           0       -2.784167    0.559143    4.928827
     45          1           0       -3.541213    1.964356    5.695322
     46          8           0       -3.694028   -0.353079    2.335227
     47          6           0       -1.885411    2.426720    4.398111
     48          6           0       -0.655762    1.817894    4.147458
     49          1           0       -0.553758    0.740039    4.195504
     50          6           0       -1.993383    3.815088    4.290954
     51          1           0       -2.957821    4.285082    4.470364
     52          6           0        0.464081    2.595070    3.856202
     53          1           0        1.414224    2.097000    3.711658
     54          6           0       -0.881187    4.590643    3.972368
     55          1           0       -0.979227    5.668609    3.899247
     56          6           0        0.355196    3.980117    3.763093
     57          1           0        1.225004    4.585360    3.528957
     58          7           0       -3.235637    1.727842    1.443878
     59          1           0       -2.972829    2.669278    1.692373
     60          6           0       -2.715276    1.236828    0.185715
     61          1           0       -2.758232    0.147832    0.233043
     62          6           0       -1.256344    1.673721    0.064863
     63          6           0       -3.519612    1.735714   -1.016163
     64          1           0       -3.122518    1.250938   -1.915203
     65          1           0       -3.347266    2.810824   -1.134257
     66          8           0       -0.862611    2.737820    0.528776
     67          6           0       -5.028670    1.470709   -0.930484
     68          1           0       -5.422301    2.055122   -0.094738
     69          6           0       -5.708618    1.954156   -2.211682
     70          1           0       -5.340841    1.392455   -3.076088
     71          1           0       -5.511991    3.015846   -2.388456
     72          1           0       -6.792239    1.816416   -2.154905
     73          6           0       -5.343517   -0.002795   -0.674702
     74          1           0       -4.974135   -0.623199   -1.498621
     75          1           0       -6.425998   -0.150547   -0.595681
     76          1           0       -4.892394   -0.364920    0.249572
     77          7           0       -0.464265    0.828201   -0.629476
     78          1           0       -0.814486   -0.020550   -1.052043
     79          6           0        0.964624    1.017166   -0.736362
     80          1           0        1.164450    2.030645   -1.100052
     81          6           0        1.450651   -0.008202   -1.763090
     82          6           0        1.680730    0.863997    0.620144
     83          1           0        1.393607    1.726557    1.226190
     84          1           0        2.762272    0.909730    0.462475
     85          8           0        0.741572   -0.923980   -2.158482
     86          6           0        1.350548   -0.427177    1.366017
     87          1           0        0.285690   -0.480954    1.609112
     88          1           0        1.627171   -1.296182    0.763911
     89          6           0        2.192381   -0.438665    2.674331
     90          8           0        3.408148   -0.647246    2.517560
     91          8           0        1.568782   -0.203816    3.737470
     92          7           0        2.727868    0.149285   -2.174918
     93          1           0        3.327980    0.881208   -1.820986
     94          6           0        3.338965   -0.774130   -3.106997
     95          1           0        3.035602   -1.782360   -2.821940
     96          6           0        4.853042   -0.603657   -2.947361
     97          6           0        2.856076   -0.507579   -4.543401
     98          1           0        1.763097   -0.519335   -4.520329
     99          1           0        3.164936    0.487617   -4.867895
    100          8           0        5.335689    0.428044   -2.497544
    101          6           0        3.315237   -1.475846   -5.621132
    102          7           0        3.505029   -2.779402   -5.227560
    103          1           0        3.703612   -3.447278   -5.958287
    104          1           0        3.065168   -3.125676   -4.391798
    105          8           0        3.497308   -1.110581   -6.766681
    106          7           0        5.596844   -1.669891   -3.336532
    107          1           0        5.174545   -2.296248   -4.021732
    108          6           0        7.031743   -1.544021   -3.393441
    109          1           0        7.332776   -0.938213   -2.535407
    110          6           0        7.445894   -0.777087   -4.652089
    111          6           0        7.691382   -2.935888   -3.315924
    112          1           0        8.765320   -2.825991   -3.500037
    113          1           0        7.563104   -3.310928   -2.297751
    114          8           0        6.735027   -0.645588   -5.633681
    115          6           0        7.067960   -3.889595   -4.301912
    116          6           0        6.154919   -4.859314   -3.881753
    117          1           0        5.940344   -4.961564   -2.824423
    118          6           0        7.332393   -3.783118   -5.668881
    119          1           0        8.048850   -3.048005   -6.013644
    120          6           0        5.499803   -5.680307   -4.795785
    121          1           0        4.790704   -6.431547   -4.470666
    122          6           0        6.690723   -4.599715   -6.596746
    123          1           0        6.909652   -4.491677   -7.653689
    124          8           0        5.102686   -6.382373   -7.013607
    125          1           0        5.384871   -6.191370   -7.915508
    126          6           0        5.769288   -5.550610   -6.157081
    127          7           0        8.692062   -0.224075   -4.574866
    128          1           0        9.286478   -0.468883   -3.801781
    129          6           0        9.262892    0.477496   -5.699643
    130          1           0        8.425442    0.685980   -6.374996
    131          6           0       10.228373   -0.365498   -6.517671
    132          6           0        9.894383    1.799937   -5.261122
    133          1           0       10.637285    1.607797   -4.480732
    134          1           0       10.428247    2.238704   -6.106952
    135          8           0       11.069993    0.088387   -7.251700
    136          6           0        8.820781    2.750989   -4.743479
    137          1           0        8.094485    2.944065   -5.538922
    138          1           0        8.278249    2.276549   -3.922429
    139          6           0        9.385068    4.077059   -4.261169
    140          1           0       10.128830    3.906614   -3.471575
    141          1           0        9.887809    4.590401   -5.086095
    142          7           0        8.284368    4.921626   -3.761001
    143          1           0        7.528345    4.409637   -3.326267
    144          7           0        9.640169    6.803332   -3.504456
    145          1           0        9.846749    7.615380   -2.942006
    146          1           0       10.441346    6.241355   -3.750338
    147          7           0        7.459438    6.793743   -2.652440
    148          1           0        7.500174    7.803542   -2.627413
    149          1           0        6.527022    6.437963   -2.824259
    150          6           0        8.470927    6.165212   -3.300710
    151          8           0       10.007597   -1.692077   -6.387053
    152          1           0       10.651387   -2.128021   -6.967995
 ---------------------------------------------------------------------

 SCF Done:  E(RB3LYP) =  -3586.81959666     A.U. after    3 cycles

 Alpha  occ. eigenvalues --  -19.26973 -19.24595 -19.21938 -19.21185 -19.18090
 Alpha  occ. eigenvalues --  -19.17659 -19.16781 -19.14475 -19.14470 -19.14261
 Alpha  occ. eigenvalues --  -19.12262 -19.00837 -19.00769 -14.62418 -14.52409
 Alpha  occ. eigenvalues --  -14.52001 -14.51861 -14.47903 -14.43063 -14.42156
 Alpha  occ. eigenvalues --  -14.39764 -14.39291 -14.38453 -14.38374 -14.36335
 Alpha  occ. eigenvalues --  -10.47696 -10.41667 -10.39911 -10.39224 -10.35697
 Alpha  occ. eigenvalues --  -10.34946 -10.34457 -10.33424 -10.33339 -10.32305
 Alpha  occ. eigenvalues --  -10.31708 -10.31540 -10.30896 -10.30790 -10.30337
 Alpha  occ. eigenvalues --  -10.29485 -10.29316 -10.29164 -10.28408 -10.28399
 Alpha  occ. eigenvalues --  -10.28355 -10.27530 -10.27397 -10.25428 -10.24771
 Alpha  occ. eigenvalues --  -10.24461 -10.24161 -10.23742 -10.23326 -10.23264
 Alpha  occ. eigenvalues --  -10.23207 -10.23122 -10.22949 -10.22833 -10.22658
 Alpha  occ. eigenvalues --  -10.22416 -10.21544 -10.20672 -10.20628 -10.20036
 Alpha  occ. eigenvalues --  -10.19665 -10.19608 -10.19409 -10.19128 -10.18787
 Alpha  occ. eigenvalues --  -10.18657 -10.17516 -10.17300 -10.16768 -10.12907
 Alpha  occ. eigenvalues --   -1.18512  -1.18111  -1.16891  -1.15362  -1.10311
 Alpha  occ. eigenvalues --   -1.10277  -1.10168  -1.09031  -1.08799  -1.06682
 Alpha  occ. eigenvalues --   -1.06597  -1.06274  -1.05680  -1.05424  -1.04342
 Alpha  occ. eigenvalues --   -1.04190  -1.00217  -0.98520  -0.97628  -0.95709
 Alpha  occ. eigenvalues --   -0.95252  -0.95004  -0.94388  -0.94080  -0.93309
 Alpha  occ. eigenvalues --   -0.91197  -0.89936  -0.88791  -0.86323  -0.86033
 Alpha  occ. eigenvalues --   -0.86023  -0.85618  -0.83886  -0.83648  -0.82398
 Alpha  occ. eigenvalues --   -0.81851  -0.80745  -0.80346  -0.79963  -0.79101
 Alpha  occ. eigenvalues --   -0.78673  -0.78016  -0.77092  -0.76812  -0.76330
 Alpha  occ. eigenvalues --   -0.75811  -0.75592  -0.74446  -0.74407  -0.74073
 Alpha  occ. eigenvalues --   -0.72524  -0.71417  -0.70776  -0.70429  -0.70374
 Alpha  occ. eigenvalues --   -0.69958  -0.69931  -0.69525  -0.69483  -0.68829
 Alpha  occ. eigenvalues --   -0.67516  -0.67352  -0.66856  -0.66338  -0.65682
 Alpha  occ. eigenvalues --   -0.64782  -0.64592  -0.64166  -0.63831  -0.63789
 Alpha  occ. eigenvalues --   -0.62745  -0.62523  -0.61885  -0.61695  -0.61589
 Alpha  occ. eigenvalues --   -0.61253  -0.60889  -0.60464  -0.60305  -0.59559
 Alpha  occ. eigenvalues --   -0.59425  -0.58774  -0.58691  -0.58371  -0.58203
 Alpha  occ. eigenvalues --   -0.57759  -0.57395  -0.57019  -0.56631  -0.56590
 Alpha  occ. eigenvalues --   -0.56032  -0.55829  -0.55440  -0.54886  -0.54700
 Alpha  occ. eigenvalues --   -0.54039  -0.53419  -0.53016  -0.52549  -0.52352
 Alpha  occ. eigenvalues --   -0.52068  -0.51701  -0.51619  -0.51154  -0.51007
 Alpha  occ. eigenvalues --   -0.50919  -0.50781  -0.50646  -0.50074  -0.49979
 Alpha  occ. eigenvalues --   -0.49535  -0.49371  -0.49117  -0.48560  -0.48466
 Alpha  occ. eigenvalues --   -0.48176  -0.47933  -0.47802  -0.47573  -0.47501
 Alpha  occ. eigenvalues --   -0.47402  -0.47053  -0.46952  -0.46708  -0.46675
 Alpha  occ. eigenvalues --   -0.46400  -0.46059  -0.45852  -0.45684  -0.45528
 Alpha  occ. eigenvalues --   -0.45432  -0.45323  -0.45226  -0.45043  -0.44802
 Alpha  occ. eigenvalues --   -0.44743  -0.44516  -0.44238  -0.44087  -0.43990
 Alpha  occ. eigenvalues --   -0.43886  -0.43832  -0.43809  -0.43230  -0.42944
 Alpha  occ. eigenvalues --   -0.42890  -0.42606  -0.42328  -0.41750  -0.41725
 Alpha  occ. eigenvalues --   -0.41583  -0.41468  -0.41458  -0.41374  -0.41295
 Alpha  occ. eigenvalues --   -0.40877  -0.40619  -0.40169  -0.39873  -0.39754
 Alpha  occ. eigenvalues --   -0.39543  -0.39251  -0.39238  -0.39183  -0.39082
 Alpha  occ. eigenvalues --   -0.38963  -0.38725  -0.38205  -0.38147  -0.37848
 Alpha  occ. eigenvalues --   -0.37714  -0.37167  -0.37080  -0.36826  -0.36118
 Alpha  occ. eigenvalues --   -0.35567  -0.34826  -0.34552  -0.34517  -0.34367
 Alpha  occ. eigenvalues --   -0.34059  -0.33836  -0.33428  -0.33129  -0.32644
 Alpha  occ. eigenvalues --   -0.32388  -0.31786  -0.31389  -0.31202  -0.30899
 Alpha  occ. eigenvalues --   -0.30239  -0.29984  -0.29375  -0.29055  -0.28765
 Alpha  occ. eigenvalues --   -0.28429  -0.28233  -0.27751  -0.27331  -0.26222
 Alpha  occ. eigenvalues --   -0.26007  -0.25345  -0.24648  -0.24551  -0.16722
 Alpha  occ. eigenvalues --   -0.15305  -0.14687
 Alpha virt. eigenvalues --   -0.13712  -0.12957  -0.10674  -0.08345  -0.06889
 Alpha virt. eigenvalues --   -0.06536  -0.05610  -0.04984  -0.04802  -0.04497
 Alpha virt. eigenvalues --   -0.04013  -0.03232  -0.03149  -0.02991  -0.02570

 Mulliken charges:
               1
     1  N   -0.727188
     2  H    0.429803
     3  H    0.427944
     4  H    0.420216
     5  C   -0.130193
     6  H    0.198711
     7  C    0.624147
     8  C   -0.098622
     9  H    0.166942
    10  O   -0.515517
    11  C   -0.485793
    12  H    0.168261
    13  H    0.187332
    14  H    0.209630
    15  C   -0.464842
    16  H    0.177542
    17  H    0.125897
    18  H    0.201439
    19  N   -0.582732
    20  H    0.350255
    21  C   -0.072157
    22  H    0.177068
    23  C    0.635897
    24  C   -0.091029
    25  H    0.145818
    26  O   -0.543436
    27  C   -0.251645
    28  H    0.107632
    29  H    0.137911
    30  C   -0.499085
    31  H    0.141591
    32  H    0.230418
    33  H    0.161705
    34  C   -0.449472
    35  H    0.148961
    36  H    0.144534
    37  H    0.165833
    38  N   -0.597519
    39  H    0.345631
    40  C   -0.039321
    41  H    0.160674
    42  C    0.654751
    43  C   -0.386573
    44  H    0.177305
    45  H    0.145801
    46  O   -0.555412
    47  C    0.161675
    48  C   -0.193804
    49  H    0.182766
    50  C   -0.197380
    51  H    0.086835
    52  C   -0.129974
    53  H    0.187776
    54  C   -0.122811
    55  H    0.106785
    56  C   -0.117753
    57  H    0.112761
    58  N   -0.583366
    59  H    0.352088
    60  C   -0.088266
    61  H    0.188881
    62  C    0.641676
    63  C   -0.257482
    64  H    0.135525
    65  H    0.137596
    66  O   -0.545712
    67  C   -0.070923
    68  H    0.147261
    69  C   -0.440142
    70  H    0.138576
    71  H    0.134773
    72  H    0.132600
    73  C   -0.475112
    74  H    0.130273
    75  H    0.127343
    76  H    0.188194
    77  N   -0.618941
    78  H    0.349562
    79  C   -0.030734
    80  H    0.144645
    81  C    0.635409
    82  C   -0.290964
    83  H    0.174805
    84  H    0.140218
    85  O   -0.556964
    86  C   -0.323270
    87  H    0.116768
    88  H    0.113475
    89  C    0.535624
    90  O   -0.586244
    91  O   -0.589162
    92  N   -0.629557
    93  H    0.352011
    94  C   -0.052708
    95  H    0.172977
    96  C    0.632225
    97  C   -0.363284
    98  H    0.208878
    99  H    0.174781
   100  O   -0.554144
   101  C    0.582329
   102  N   -0.774112
   103  H    0.356035
   104  H    0.350715
   105  O   -0.487012
   106  N   -0.619124
   107  H    0.397601
   108  C   -0.081921
   109  H    0.177728
   110  C    0.642276
   111  C   -0.362467
   112  H    0.147954
   113  H    0.177421
   114  O   -0.508040
   115  C    0.123885
   116  C   -0.193582
   117  H    0.145107
   118  C   -0.178381
   119  H    0.162684
   120  C   -0.168991
   121  H    0.150486
   122  C   -0.197281
   123  H    0.128392
   124  O   -0.639911
   125  H    0.412289
   126  C    0.339563
   127  N   -0.611521
   128  H    0.331972
   129  C   -0.064515
   130  H    0.229807
   131  C    0.596611
   132  C   -0.282684
   133  H    0.146397
   134  H    0.185645
   135  O   -0.453189
   136  C   -0.312507
   137  H    0.182999
   138  H    0.183963
   139  C   -0.161465
   140  H    0.179307
   141  H    0.188340
   142  N   -0.588505
   143  H    0.376501
   144  N   -0.735522
   145  H    0.381503
   146  H    0.388506
   147  N   -0.730355
   148  H    0.375850
   149  H    0.382654
   150  C    0.752949
   151  O   -0.556126
   152  H    0.424561
 Sum of Mulliken charges =   1.00000

 Dipole moment (field-independent basis, Debye):
    X=             -9.3465    Y=             28.5588    Z=              1.5183  Tot=             30.0877
 Quadrupole moment (field-independent basis, Debye-Ang):
   XX=            348.5893   YY=           -240.8912   ZZ=           -277.4023
   XY=             93.2222   XZ=           -431.6507   YZ=             13.4226

 Normal termination of Gaussian 16 at Mon Aug 15 06:25:10 2022.
