 Gaussian 16, Revision C.01,
 Gaussian 16:  ES64L-G16RevC.01  3-Jul-2019

 ----------------------------------------------------------------------
 # B3LYP/6-31G* empiricaldispersion=gd3bj guess=read geom=check nosymm
 integral(ultrafinegrid)
 ----------------------------------------------------------------------

 ------------------------------------------------------
 Candidate Structure: Conf:578 Charge calc in gas phase
 ------------------------------------------------------
 Structure from the checkpoint file:  "conf-578.chk"
 Charge =  1 Multiplicity = 1

                          Input orientation:
 ---------------------------------------------------------------------
 Center     Atomic      Atomic             Coordinates (Angstroms)
 Number     Number       Type             X           Y           Z
 ---------------------------------------------------------------------
      1          7           0      -10.195904    3.499010    7.324839
      2          1           0      -11.217211    3.501174    7.356048
      3          1           0       -9.810598    2.516258    7.487580
      4          1           0       -9.843682    4.130845    8.049146
      5          6           0       -9.624366    3.823772    5.959202
      6          1           0      -10.465821    3.929345    5.269768
      7          6           0       -8.803133    2.550613    5.629661
      8          6           0       -8.777373    5.114098    5.981847
      9          1           0       -8.438994    5.257595    4.948895
     10          8           0       -8.774781    1.645068    6.476109
     11          6           0       -9.632052    6.329168    6.365894
     12          1           0       -9.963643    6.292348    7.412812
     13          1           0       -9.044955    7.245136    6.258000
     14          1           0      -10.520038    6.422440    5.730875
     15          6           0       -7.522651    4.977523    6.853449
     16          1           0       -7.758454    4.805154    7.913462
     17          1           0       -6.866505    4.175116    6.509010
     18          1           0       -6.937558    5.898446    6.804942
     19          7           0       -8.171582    2.555360    4.460419
     20          1           0       -8.077535    3.450402    3.978278
     21          6           0       -7.002497    1.716028    4.188721
     22          1           0       -6.736167    1.208440    5.120668
     23          6           0       -5.900979    2.726602    3.804192
     24          6           0       -7.241054    0.660164    3.084054
     25          1           0       -6.312610    0.074994    3.025948
     26          8           0       -6.173038    3.926520    3.686024
     27          6           0       -7.471904    1.299003    1.700874
     28          1           0       -6.788173    2.145909    1.564130
     29          1           0       -8.488372    1.714266    1.661343
     30          6           0       -8.370676   -0.290126    3.493870
     31          1           0       -9.325714    0.244756    3.548138
     32          1           0       -8.179838   -0.740032    4.473872
     33          1           0       -8.481812   -1.099331    2.767208
     34          6           0       -7.253736    0.317448    0.546107
     35          1           0       -7.411174    0.810897   -0.418374
     36          1           0       -6.227302   -0.065824    0.561429
     37          1           0       -7.937527   -0.536302    0.596400
     38          7           0       -4.689100    2.195747    3.592237
     39          1           0       -4.586462    1.188906    3.484743
     40          6           0       -3.617360    2.928344    2.941745
     41          1           0       -4.040929    3.848395    2.531116
     42          6           0       -3.114144    2.005837    1.817515
     43          6           0       -2.484460    3.281704    3.935887
     44          1           0       -1.712166    3.841725    3.396400
     45          1           0       -2.025462    2.347579    4.278908
     46          8           0       -3.344167    0.793024    1.870334
     47          6           0       -3.002792    4.076731    5.109681
     48          6           0       -3.152148    5.465267    5.021983
     49          1           0       -2.856838    5.978692    4.110161
     50          6           0       -3.388258    3.432963    6.291440
     51          1           0       -3.271338    2.355536    6.372836
     52          6           0       -3.661781    6.197411    6.093458
     53          1           0       -3.753459    7.276927    6.013714
     54          6           0       -3.899365    4.160378    7.366932
     55          1           0       -4.171792    3.647004    8.285266
     56          6           0       -4.033462    5.546804    7.271696
     57          1           0       -4.408246    6.118677    8.116364
     58          7           0       -2.443870    2.622686    0.834808
     59          1           0       -2.149270    3.593235    0.933176
     60          6           0       -1.739059    1.941732   -0.240132
     61          1           0       -1.479600    0.934018    0.097034
     62          6           0       -0.465341    2.775815   -0.478583
     63          6           0       -2.578127    1.879527   -1.533880
     64          1           0       -1.956726    1.449604   -2.330769
     65          1           0       -2.795805    2.913252   -1.832764
     66          8           0       -0.376381    3.919929   -0.023337
     67          6           0       -3.889459    1.083009   -1.432440
     68          1           0       -4.459580    1.475880   -0.579843
     69          6           0       -4.725949    1.300776   -2.699618
     70          1           0       -4.199095    0.927191   -3.586589
     71          1           0       -4.940972    2.363420   -2.862158
     72          1           0       -5.681295    0.767505   -2.633663
     73          6           0       -3.639231   -0.410288   -1.192064
     74          1           0       -3.021958   -0.835397   -1.994154
     75          1           0       -4.586550   -0.961727   -1.179215
     76          1           0       -3.145040   -0.585187   -0.233060
     77          7           0        0.477686    2.185939   -1.228062
     78          1           0        0.355423    1.251658   -1.607922
     79          6           0        1.685261    2.859072   -1.683192
     80          1           0        1.446048    3.899450   -1.910306
     81          6           0        2.101663    2.133625   -2.969580
     82          6           0        2.773425    2.829721   -0.577285
     83          1           0        2.755328    1.823069   -0.142467
     84          1           0        2.434802    3.520011    0.202434
     85          8           0        1.785634    0.962348   -3.195125
     86          6           0        4.231224    3.129557   -0.961457
     87          1           0        4.848101    3.024059   -0.063413
     88          1           0        4.588843    2.369348   -1.670183
     89          6           0        4.584556    4.474201   -1.605832
     90          8           0        3.755212    5.035184   -2.379409
     91          8           0        5.757652    4.907985   -1.392121
     92          7           0        2.831042    2.906345   -3.793492
     93          1           0        3.121229    3.811685   -3.396590
     94          6           0        3.529770    2.396888   -4.950186
     95          1           0        2.821667    2.183060   -5.760209
     96          6           0        4.337777    1.139522   -4.604578
     97          6           0        4.528424    3.469392   -5.424597
     98          1           0        5.216338    3.695331   -4.605719
     99          1           0        5.103523    3.065801   -6.262329
    100          8           0        5.113009    1.119152   -3.639785
    101          6           0        3.814844    4.719366   -5.944780
    102          7           0        3.901594    5.820613   -5.141704
    103          1           0        3.310117    6.593042   -5.425271
    104          1           0        4.039002    5.710189   -4.131548
    105          8           0        3.248685    4.703336   -7.029882
    106          7           0        4.234507    0.117884   -5.481496
    107          1           0        3.572678    0.188904   -6.242663
    108          6           0        5.003909   -1.124026   -5.350682
    109          1           0        5.077317   -1.345475   -4.282035
    110          6           0        6.410063   -0.836707   -5.917557
    111          6           0        4.311559   -2.278069   -6.080353
    112          1           0        3.254196   -2.269169   -5.791671
    113          1           0        4.372499   -2.094678   -7.158299
    114          8           0        6.732522   -1.078114   -7.071606
    115          6           0        4.931857   -3.612907   -5.734574
    116          6           0        5.997723   -4.137856   -6.478678
    117          1           0        6.373111   -3.580334   -7.330403
    118          6           0        4.476229   -4.337882   -4.629047
    119          1           0        3.647612   -3.953271   -4.038542
    120          6           0        6.588339   -5.348637   -6.133933
    121          1           0        7.410285   -5.758427   -6.711623
    122          6           0        5.058909   -5.552157   -4.270796
    123          1           0        4.686270   -6.105480   -3.410904
    124          8           0        6.734836   -7.245483   -4.731967
    125          1           0        6.305661   -7.640453   -3.957324
    126          6           0        6.119595   -6.061339   -5.025833
    127          7           0        7.222383   -0.195496   -5.016335
    128          1           0        6.729978    0.202525   -4.213136
    129          6           0        8.361480    0.569105   -5.510589
    130          1           0        8.745997    0.034421   -6.381900
    131          6           0        9.416021    0.539381   -4.410905
    132          6           0        7.923522    1.993023   -5.879517
    133          1           0        7.155981    1.890266   -6.652021
    134          1           0        7.425590    2.413476   -5.000773
    135          8           0        9.545489    1.379003   -3.530860
    136          6           0        9.043421    2.935584   -6.363919
    137          1           0       10.033941    2.522822   -6.128312
    138          1           0        9.018486    3.043170   -7.453158
    139          6           0        8.942891    4.328310   -5.724993
    140          1           0        9.715564    4.993593   -6.123869
    141          1           0        7.968877    4.775363   -5.945139
    142          7           0        9.088983    4.213967   -4.268284
    143          1           0        9.682524    3.442124   -3.980318
    144          7           0        7.180841    5.406492   -3.596321
    145          1           0        6.472573    5.532333   -2.839830
    146          1           0        7.366349    6.147295   -4.255400
    147          7           0        8.023493    3.718099   -2.270716
    148          1           0        7.239027    3.928728   -1.633574
    149          1           0        8.444266    2.796776   -2.285876
    150          6           0        8.089697    4.450506   -3.386973
    151          8           0       10.189378   -0.546638   -4.480750
    152          1           0       10.793401   -0.529871   -3.712889
 ---------------------------------------------------------------------

 SCF Done:  E(RB3LYP) =  -3586.99830141     A.U. after    1 cycles

 Alpha  occ. eigenvalues --  -19.27594 -19.26647 -19.22667 -19.21383 -19.21212
 Alpha  occ. eigenvalues --  -19.18974 -19.18001 -19.17358 -19.16957 -19.16134
 Alpha  occ. eigenvalues --  -19.14282 -19.14193 -19.14107 -14.59232 -14.48328
 Alpha  occ. eigenvalues --  -14.44436 -14.43680 -14.42659 -14.42483 -14.42225
 Alpha  occ. eigenvalues --  -14.41713 -14.41141 -14.40761 -14.38945 -14.37668
 Alpha  occ. eigenvalues --  -10.42936 -10.40388 -10.39853 -10.39265 -10.38134
 Alpha  occ. eigenvalues --  -10.35899 -10.34817 -10.34055 -10.33976 -10.33603
 Alpha  occ. eigenvalues --  -10.33232 -10.32637 -10.32098 -10.31961 -10.31034
 Alpha  occ. eigenvalues --  -10.30435 -10.30154 -10.30115 -10.29287 -10.29023
 Alpha  occ. eigenvalues --  -10.28852 -10.28760 -10.28300 -10.28271 -10.27025
 Alpha  occ. eigenvalues --  -10.26676 -10.26390 -10.26330 -10.25988 -10.25837
 Alpha  occ. eigenvalues --  -10.25738 -10.25643 -10.25616 -10.25585 -10.25465
 Alpha  occ. eigenvalues --  -10.25464 -10.24345 -10.24098 -10.24036 -10.23836
 Alpha  occ. eigenvalues --  -10.23804 -10.22760 -10.22690 -10.22651 -10.22472
 Alpha  occ. eigenvalues --  -10.22042 -10.22041 -10.21664 -10.21555 -10.21472
 Alpha  occ. eigenvalues --   -1.18978  -1.18919  -1.13574  -1.13038  -1.10826
 Alpha  occ. eigenvalues --   -1.10101  -1.09724  -1.09268  -1.09020  -1.08855
 Alpha  occ. eigenvalues --   -1.08273  -1.07609  -1.07131  -1.06062  -1.05568
 Alpha  occ. eigenvalues --   -1.01559  -0.99309  -0.98955  -0.98864  -0.98391
 Alpha  occ. eigenvalues --   -0.97741  -0.97451  -0.96728  -0.95407  -0.94738
 Alpha  occ. eigenvalues --   -0.92743  -0.92373  -0.90474  -0.88976  -0.87086
 Alpha  occ. eigenvalues --   -0.86841  -0.86098  -0.85806  -0.84730  -0.83380
 Alpha  occ. eigenvalues --   -0.82547  -0.81899  -0.81602  -0.81138  -0.81074
 Alpha  occ. eigenvalues --   -0.81028  -0.79703  -0.78564  -0.78136  -0.77212
 Alpha  occ. eigenvalues --   -0.75752  -0.75581  -0.73717  -0.73607  -0.73415
 Alpha  occ. eigenvalues --   -0.72746  -0.72247  -0.72022  -0.71304  -0.71097
 Alpha  occ. eigenvalues --   -0.70784  -0.69951  -0.69567  -0.68637  -0.67795
 Alpha  occ. eigenvalues --   -0.67337  -0.67051  -0.66572  -0.65998  -0.65608
 Alpha  occ. eigenvalues --   -0.65428  -0.65092  -0.64958  -0.64547  -0.64112
 Alpha  occ. eigenvalues --   -0.63658  -0.63489  -0.62384  -0.62162  -0.61886
 Alpha  occ. eigenvalues --   -0.61564  -0.61412  -0.61014  -0.60369  -0.59565
 Alpha  occ. eigenvalues --   -0.59243  -0.58188  -0.58158  -0.57968  -0.57673
 Alpha  occ. eigenvalues --   -0.57520  -0.57208  -0.56975  -0.56955  -0.56329
 Alpha  occ. eigenvalues --   -0.56025  -0.55680  -0.55494  -0.55247  -0.54958
 Alpha  occ. eigenvalues --   -0.54769  -0.54574  -0.54163  -0.54018  -0.53537
 Alpha  occ. eigenvalues --   -0.53343  -0.53142  -0.52732  -0.52392  -0.52266
 Alpha  occ. eigenvalues --   -0.52069  -0.51937  -0.51802  -0.51671  -0.51503
 Alpha  occ. eigenvalues --   -0.51175  -0.51075  -0.50739  -0.50350  -0.50243
 Alpha  occ. eigenvalues --   -0.50142  -0.49935  -0.49774  -0.49506  -0.49253
 Alpha  occ. eigenvalues --   -0.49050  -0.48659  -0.48480  -0.48254  -0.48201
 Alpha  occ. eigenvalues --   -0.47894  -0.47773  -0.47584  -0.47327  -0.47066
 Alpha  occ. eigenvalues --   -0.46801  -0.46675  -0.46617  -0.46571  -0.46472
 Alpha  occ. eigenvalues --   -0.46276  -0.46234  -0.46019  -0.45817  -0.45726
 Alpha  occ. eigenvalues --   -0.45644  -0.45457  -0.45213  -0.45087  -0.44878
 Alpha  occ. eigenvalues --   -0.44814  -0.44556  -0.43999  -0.43983  -0.43646
 Alpha  occ. eigenvalues --   -0.43509  -0.43405  -0.43140  -0.42906  -0.42835
 Alpha  occ. eigenvalues --   -0.42707  -0.42287  -0.42267  -0.42012  -0.41901
 Alpha  occ. eigenvalues --   -0.41819  -0.41516  -0.41334  -0.41157  -0.41068
 Alpha  occ. eigenvalues --   -0.40973  -0.40808  -0.40651  -0.40604  -0.40521
 Alpha  occ. eigenvalues --   -0.40132  -0.40057  -0.39996  -0.39591  -0.38990
 Alpha  occ. eigenvalues --   -0.38807  -0.38222  -0.37702  -0.37623  -0.37372
 Alpha  occ. eigenvalues --   -0.37246  -0.36996  -0.36344  -0.36119  -0.35439
 Alpha  occ. eigenvalues --   -0.34950  -0.34019  -0.33522  -0.33287  -0.33155
 Alpha  occ. eigenvalues --   -0.32560  -0.32419  -0.31624  -0.31400  -0.31257
 Alpha  occ. eigenvalues --   -0.30876  -0.30661  -0.30329  -0.29974  -0.29750
 Alpha  occ. eigenvalues --   -0.29369  -0.29136  -0.28818  -0.28520  -0.28089
 Alpha  occ. eigenvalues --   -0.27775  -0.25204
 Alpha virt. eigenvalues --   -0.12150  -0.10554  -0.08085  -0.07411  -0.06974
 Alpha virt. eigenvalues --   -0.06761  -0.06275  -0.04893  -0.04499  -0.04394
 Alpha virt. eigenvalues --   -0.03711  -0.03217  -0.03091  -0.02915  -0.02224

 Mulliken charges:
               1
     1  N   -0.762605
     2  H    0.414144
     3  H    0.435021
     4  H    0.409559
     5  C   -0.103916
     6  H    0.216276
     7  C    0.638128
     8  C   -0.135257
     9  H    0.200306
    10  O   -0.540687
    11  C   -0.464517
    12  H    0.135515
    13  H    0.200229
    14  H    0.168032
    15  C   -0.471683
    16  H    0.126471
    17  H    0.198342
    18  H    0.198530
    19  N   -0.573882
    20  H    0.371879
    21  C   -0.101742
    22  H    0.196007
    23  C    0.634757
    24  C   -0.085736
    25  H    0.153368
    26  O   -0.558608
    27  C   -0.277989
    28  H    0.152586
    29  H    0.134954
    30  C   -0.456515
    31  H    0.142495
    32  H    0.159107
    33  H    0.171177
    34  C   -0.467942
    35  H    0.160266
    36  H    0.177821
    37  H    0.153081
    38  N   -0.596434
    39  H    0.365050
    40  C   -0.080110
    41  H    0.191197
    42  C    0.634185
    43  C   -0.367519
    44  H    0.176143
    45  H    0.165110
    46  O   -0.551964
    47  C    0.184002
    48  C   -0.165528
    49  H    0.136912
    50  C   -0.180860
    51  H    0.128179
    52  C   -0.131886
    53  H    0.139198
    54  C   -0.139319
    55  H    0.130976
    56  C   -0.136659
    57  H    0.130069
    58  N   -0.601367
    59  H    0.359127
    60  C   -0.079158
    61  H    0.180936
    62  C    0.627101
    63  C   -0.252917
    64  H    0.147960
    65  H    0.144650
    66  O   -0.550317
    67  C   -0.071052
    68  H    0.128831
    69  C   -0.447497
    70  H    0.148472
    71  H    0.141143
    72  H    0.142746
    73  C   -0.463620
    74  H    0.137509
    75  H    0.141169
    76  H    0.173239
    77  N   -0.618097
    78  H    0.352705
    79  C   -0.052736
    80  H    0.200317
    81  C    0.602813
    82  C   -0.253474
    83  H    0.139667
    84  H    0.170815
    85  O   -0.564223
    86  C   -0.405162
    87  H    0.152743
    88  H    0.201046
    89  C    0.616052
    90  O   -0.587602
    91  O   -0.606860
    92  N   -0.650246
    93  H    0.405901
    94  C   -0.016193
    95  H    0.172567
    96  C    0.664309
    97  C   -0.412025
    98  H    0.181037
    99  H    0.170748
   100  O   -0.568653
   101  C    0.568540
   102  N   -0.776761
   103  H    0.331438
   104  H    0.386013
   105  O   -0.509842
   106  N   -0.606197
   107  H    0.350055
   108  C   -0.045948
   109  H    0.185997
   110  C    0.633403
   111  C   -0.387196
   112  H    0.159253
   113  H    0.172989
   114  O   -0.515231
   115  C    0.144259
   116  C   -0.185922
   117  H    0.161901
   118  C   -0.187832
   119  H    0.128095
   120  C   -0.161178
   121  H    0.145308
   122  C   -0.193775
   123  H    0.120167
   124  O   -0.639226
   125  H    0.408190
   126  C    0.352075
   127  N   -0.625116
   128  H    0.377384
   129  C   -0.043335
   130  H    0.209868
   131  C    0.594166
   132  C   -0.291909
   133  H    0.179544
   134  H    0.164751
   135  O   -0.509126
   136  C   -0.300871
   137  H    0.151003
   138  H    0.175083
   139  C   -0.163546
   140  H    0.176492
   141  H    0.175811
   142  N   -0.590358
   143  H    0.369191
   144  N   -0.769624
   145  H    0.420009
   146  H    0.354624
   147  N   -0.782979
   148  H    0.405078
   149  H    0.377833
   150  C    0.733136
   151  O   -0.529512
   152  H    0.423713
 Sum of Mulliken charges =   1.00000

 Dipole moment (field-independent basis, Debye):
    X=            -24.4568    Y=             14.9719    Z=             21.1228  Tot=             35.6155
 Quadrupole moment (field-independent basis, Debye-Ang):
   XX=             72.9912   YY=           -367.0736   ZZ=           -263.4620
   XY=           -113.9683   XZ=           -303.6252   YZ=             80.9171

 Normal termination of Gaussian 16 at Mon Aug 15 06:23:41 2022.
