 Gaussian 16, Revision C.01,
 Gaussian 16:  ES64L-G16RevC.01  3-Jul-2019

 ----------------------------------------------------------------------
 # B3LYP/6-31G* empiricaldispersion=gd3bj guess=read geom=check nosymm
 integral(ultrafinegrid)
 ----------------------------------------------------------------------

 ------------------------------------------------------
 Candidate Structure: Conf:885 Charge calc in gas phase
 ------------------------------------------------------
 Structure from the checkpoint file:  "conf-885.chk"
 Charge =  1 Multiplicity = 1

                          Input orientation:
 ---------------------------------------------------------------------
 Center     Atomic      Atomic             Coordinates (Angstroms)
 Number     Number       Type             X           Y           Z
 ---------------------------------------------------------------------
      1          7           0       -4.010893   -5.229757    2.345852
      2          1           0       -4.374197   -5.968263    1.741214
      3          1           0       -2.958548   -5.070927    2.156519
      4          1           0       -4.176162   -5.484310    3.322067
      5          6           0       -4.537121   -3.851551    2.008544
      6          1           0       -5.374802   -3.959355    1.315631
      7          6           0       -3.302302   -3.182373    1.363839
      8          6           0       -4.964076   -3.090788    3.280070
      9          1           0       -5.284451   -2.105975    2.922395
     10          8           0       -2.215607   -3.776564    1.494358
     11          6           0       -6.171207   -3.758710    3.949793
     12          1           0       -5.919885   -4.727204    4.405703
     13          1           0       -6.541742   -3.124238    4.760055
     14          1           0       -6.995037   -3.918367    3.244843
     15          6           0       -3.794228   -2.875743    4.254272
     16          1           0       -3.342772   -3.823261    4.580763
     17          1           0       -2.998548   -2.244269    3.845122
     18          1           0       -4.164822   -2.386070    5.158857
     19          7           0       -3.477281   -1.992539    0.817780
     20          1           0       -4.400386   -1.578633    0.699240
     21          6           0       -2.373280   -1.036799    0.656057
     22          1           0       -1.769693   -1.100120    1.565704
     23          6           0       -3.069722    0.324298    0.589831
     24          6           0       -1.487792   -1.320200   -0.591746
     25          1           0       -1.510093   -2.408924   -0.727328
     26          8           0       -4.153929    0.438684    0.006611
     27          6           0       -0.029697   -0.919426   -0.304957
     28          1           0       -0.022295    0.107864    0.086497
     29          1           0        0.508644   -0.873131   -1.260019
     30          6           0       -2.018424   -0.657764   -1.869479
     31          1           0       -1.861318    0.426123   -1.838952
     32          1           0       -3.087358   -0.838427   -2.013665
     33          1           0       -1.479706   -1.048143   -2.740612
     34          6           0        0.698854   -1.868892    0.650507
     35          1           0        1.746742   -1.581323    0.758700
     36          1           0        0.244167   -1.873264    1.645883
     37          1           0        0.670078   -2.894870    0.263761
     38          7           0       -2.380429    1.315373    1.171333
     39          1           0       -1.712458    1.109907    1.932779
     40          6           0       -2.844769    2.689548    1.189323
     41          1           0       -3.510577    2.820573    0.332531
     42          6           0       -1.590583    3.550975    0.927907
     43          6           0       -3.596878    3.006892    2.501373
     44          1           0       -3.954665    4.043450    2.459311
     45          1           0       -2.890558    2.914005    3.331702
     46          8           0       -0.990856    3.475167   -0.142899
     47          6           0       -4.746693    2.071256    2.784693
     48          6           0       -5.991914    2.242793    2.170350
     49          1           0       -6.129460    3.053622    1.459354
     50          6           0       -4.574994    1.016060    3.687785
     51          1           0       -3.598337    0.851168    4.135123
     52          6           0       -7.055130    1.390820    2.461149
     53          1           0       -8.016161    1.539943    1.977139
     54          6           0       -5.649339    0.182589    4.005078
     55          1           0       -5.521069   -0.591059    4.756713
     56          6           0       -6.890527    0.362733    3.392102
     57          1           0       -7.728619   -0.279932    3.649740
     58          7           0       -1.181121    4.352802    1.945600
     59          1           0       -1.650486    4.288152    2.836428
     60          6           0        0.052833    5.112397    1.883859
     61          1           0        0.168992    5.457983    0.855374
     62          6           0        1.310308    4.278396    2.158905
     63          6           0        0.008062    6.312072    2.840284
     64          1           0        0.969697    6.830202    2.751631
     65          1           0       -0.050186    5.938094    3.873008
     66          8           0        2.408499    4.723590    1.779417
     67          6           0       -1.143637    7.299574    2.586139
     68          1           0       -2.093033    6.762986    2.728124
     69          6           0       -1.085620    8.435936    3.614246
     70          1           0       -0.161014    9.015704    3.501600
     71          1           0       -1.114589    8.050210    4.639965
     72          1           0       -1.928659    9.124195    3.488546
     73          6           0       -1.126720    7.851063    1.155641
     74          1           0       -0.167235    8.336850    0.936812
     75          1           0       -1.916947    8.597712    1.020127
     76          1           0       -1.285140    7.064275    0.410446
     77          7           0        1.157978    3.110678    2.798341
     78          1           0        0.236489    2.686900    3.007038
     79          6           0        2.277668    2.232633    3.142184
     80          1           0        3.117218    2.885483    3.415008
     81          6           0        2.736792    1.429201    1.907324
     82          6           0        1.927662    1.353245    4.362739
     83          1           0        1.504658    2.028401    5.115494
     84          1           0        2.877963    0.989593    4.769508
     85          8           0        2.957248    0.214652    1.926017
     86          6           0        1.020413    0.119527    4.188666
     87          1           0        1.501988   -0.592846    3.516072
     88          1           0        0.956846   -0.387140    5.160042
     89          6           0       -0.422930    0.283892    3.691451
     90          8           0       -1.098394   -0.760672    3.560199
     91          8           0       -0.850997    1.460551    3.403577
     92          7           0        2.869529    2.171251    0.778616
     93          1           0        2.833622    3.187708    0.889013
     94          6           0        2.691662    1.609889   -0.547982
     95          1           0        2.014802    0.752597   -0.461702
     96          6           0        3.960639    1.037252   -1.185624
     97          6           0        2.034615    2.666669   -1.441715
     98          1           0        1.071722    2.949718   -0.996293
     99          1           0        2.664082    3.561750   -1.481495
    100          8           0        4.192936    1.183706   -2.389810
    101          6           0        1.753396    2.153304   -2.832993
    102          7           0        2.158373    2.944209   -3.860266
    103          1           0        2.151895    2.537630   -4.786504
    104          1           0        2.915375    3.590320   -3.684601
    105          8           0        1.084268    1.121617   -3.021948
    106          7           0        4.728996    0.284518   -0.358403
    107          1           0        4.285561    0.021108    0.527316
    108          6           0        5.617191   -0.685407   -0.974565
    109          1           0        6.191939   -0.168411   -1.746806
    110          6           0        4.754473   -1.782418   -1.618520
    111          6           0        6.585544   -1.335252    0.039247
    112          1           0        7.273018   -0.568527    0.411748
    113          1           0        6.006385   -1.712640    0.888587
    114          8           0        3.842566   -2.318650   -0.994208
    115          6           0        7.302631   -2.469745   -0.658072
    116          6           0        6.822676   -3.780988   -0.548967
    117          1           0        6.049374   -4.005204    0.179648
    118          6           0        8.294719   -2.207128   -1.609731
    119          1           0        8.698467   -1.201717   -1.703642
    120          6           0        7.258329   -4.784386   -1.409517
    121          1           0        6.851217   -5.787934   -1.353457
    122          6           0        8.735763   -3.198809   -2.484496
    123          1           0        9.471005   -2.965418   -3.251031
    124          8           0        8.459158   -5.458765   -3.338118
    125          1           0        9.104194   -5.109720   -3.973973
    126          6           0        8.181045   -4.477459   -2.409859
    127          7           0        5.071225   -2.109568   -2.897364
    128          1           0        5.884567   -1.701332   -3.339410
    129          6           0        4.495369   -3.281067   -3.534239
    130          1           0        4.110562   -3.922304   -2.739232
    131          6           0        5.640917   -3.986908   -4.250267
    132          6           0        3.339231   -2.907596   -4.483775
    133          1           0        3.756192   -2.410464   -5.370124
    134          1           0        2.859962   -3.838399   -4.820727
    135          8           0        6.480106   -3.394648   -4.898595
    136          6           0        2.324216   -1.994991   -3.775444
    137          1           0        2.140493   -2.369870   -2.763095
    138          1           0        2.740991   -0.991002   -3.652037
    139          6           0        0.972854   -1.911541   -4.473598
    140          1           0        0.500080   -2.899847   -4.520612
    141          1           0        0.303041   -1.252155   -3.922326
    142          7           0        1.049954   -1.417748   -5.861700
    143          1           0        1.540391   -2.002233   -6.525988
    144          7           0        0.184620    0.715663   -5.517826
    145          1           0       -0.438940    1.432665   -5.862100
    146          1           0        0.522010    0.802394   -4.522033
    147          7           0        0.421560   -0.127042   -7.668735
    148          1           0        0.228643    0.777329   -8.072276
    149          1           0        0.358940   -0.930332   -8.276480
    150          6           0        0.547265   -0.273174   -6.328938
    151          8           0        5.643374   -5.311496   -4.048349
    152          1           0        6.528811   -5.642734   -4.314410
 ---------------------------------------------------------------------

 SCF Done:  E(RB3LYP) =  -3586.99338720     A.U. after    3 cycles

 Alpha  occ. eigenvalues --  -19.26016 -19.24762 -19.22967 -19.21064 -19.20847
 Alpha  occ. eigenvalues --  -19.17879 -19.17485 -19.17305 -19.16527 -19.16295
 Alpha  occ. eigenvalues --  -19.15704 -19.13168 -19.11748 -14.55912 -14.50350
 Alpha  occ. eigenvalues --  -14.50001 -14.47980 -14.45033 -14.43959 -14.42186
 Alpha  occ. eigenvalues --  -14.41291 -14.40414 -14.40016 -14.39178 -14.38982
 Alpha  occ. eigenvalues --  -10.46044 -10.39211 -10.38890 -10.38055 -10.36651
 Alpha  occ. eigenvalues --  -10.34254 -10.34123 -10.33809 -10.33765 -10.33100
 Alpha  occ. eigenvalues --  -10.32683 -10.32645 -10.30792 -10.30479 -10.30412
 Alpha  occ. eigenvalues --  -10.30143 -10.29307 -10.28840 -10.27847 -10.27846
 Alpha  occ. eigenvalues --  -10.27789 -10.27649 -10.27569 -10.27420 -10.26292
 Alpha  occ. eigenvalues --  -10.25947 -10.25601 -10.25071 -10.24995 -10.24923
 Alpha  occ. eigenvalues --  -10.24818 -10.24494 -10.24326 -10.24269 -10.24110
 Alpha  occ. eigenvalues --  -10.23981 -10.23888 -10.23815 -10.23613 -10.23489
 Alpha  occ. eigenvalues --  -10.23361 -10.23345 -10.23043 -10.22587 -10.22333
 Alpha  occ. eigenvalues --  -10.21805 -10.21512 -10.21409 -10.20426 -10.19165
 Alpha  occ. eigenvalues --   -1.17279  -1.15488  -1.14472  -1.12261  -1.12231
 Alpha  occ. eigenvalues --   -1.09984  -1.09847  -1.09233  -1.08790  -1.08653
 Alpha  occ. eigenvalues --   -1.08322  -1.08013  -1.07290  -1.05561  -1.03872
 Alpha  occ. eigenvalues --   -1.02092  -1.01724  -0.99058  -0.99040  -0.98246
 Alpha  occ. eigenvalues --   -0.98219  -0.97332  -0.97103  -0.96540  -0.95310
 Alpha  occ. eigenvalues --   -0.91469  -0.91401  -0.90141  -0.88623  -0.86524
 Alpha  occ. eigenvalues --   -0.85794  -0.85415  -0.84389  -0.83519  -0.83473
 Alpha  occ. eigenvalues --   -0.82750  -0.82187  -0.80635  -0.79899  -0.78983
 Alpha  occ. eigenvalues --   -0.78977  -0.78431  -0.77879  -0.77808  -0.76724
 Alpha  occ. eigenvalues --   -0.75982  -0.75500  -0.75440  -0.73552  -0.72480
 Alpha  occ. eigenvalues --   -0.71711  -0.71225  -0.71026  -0.70599  -0.70350
 Alpha  occ. eigenvalues --   -0.70314  -0.69416  -0.68785  -0.68225  -0.68050
 Alpha  occ. eigenvalues --   -0.67431  -0.67063  -0.66398  -0.65958  -0.65873
 Alpha  occ. eigenvalues --   -0.65196  -0.65029  -0.64845  -0.64220  -0.63751
 Alpha  occ. eigenvalues --   -0.63611  -0.63540  -0.62869  -0.62654  -0.62536
 Alpha  occ. eigenvalues --   -0.62500  -0.61545  -0.61359  -0.61032  -0.60827
 Alpha  occ. eigenvalues --   -0.60323  -0.59320  -0.58460  -0.58375  -0.58117
 Alpha  occ. eigenvalues --   -0.57515  -0.56487  -0.56391  -0.56070  -0.55832
 Alpha  occ. eigenvalues --   -0.55503  -0.55208  -0.55048  -0.55011  -0.54604
 Alpha  occ. eigenvalues --   -0.54151  -0.54091  -0.53698  -0.53482  -0.52972
 Alpha  occ. eigenvalues --   -0.52831  -0.52674  -0.52524  -0.52051  -0.52035
 Alpha  occ. eigenvalues --   -0.51743  -0.51554  -0.51538  -0.50959  -0.50719
 Alpha  occ. eigenvalues --   -0.50568  -0.50227  -0.50062  -0.49830  -0.49287
 Alpha  occ. eigenvalues --   -0.49232  -0.48798  -0.48510  -0.48427  -0.48349
 Alpha  occ. eigenvalues --   -0.48159  -0.48077  -0.47939  -0.47677  -0.47364
 Alpha  occ. eigenvalues --   -0.47221  -0.47035  -0.46794  -0.46745  -0.46616
 Alpha  occ. eigenvalues --   -0.46385  -0.46288  -0.46170  -0.46034  -0.45704
 Alpha  occ. eigenvalues --   -0.45444  -0.45308  -0.45264  -0.45148  -0.44844
 Alpha  occ. eigenvalues --   -0.44749  -0.44552  -0.44418  -0.44122  -0.43997
 Alpha  occ. eigenvalues --   -0.43764  -0.43601  -0.43334  -0.43102  -0.43004
 Alpha  occ. eigenvalues --   -0.42773  -0.42721  -0.42510  -0.42421  -0.42164
 Alpha  occ. eigenvalues --   -0.42042  -0.41918  -0.41703  -0.41578  -0.41534
 Alpha  occ. eigenvalues --   -0.40980  -0.40809  -0.40519  -0.40384  -0.40345
 Alpha  occ. eigenvalues --   -0.40207  -0.39896  -0.39851  -0.39697  -0.39558
 Alpha  occ. eigenvalues --   -0.38806  -0.38769  -0.38607  -0.38382  -0.38365
 Alpha  occ. eigenvalues --   -0.38202  -0.38003  -0.37191  -0.37060  -0.36986
 Alpha  occ. eigenvalues --   -0.36822  -0.36641  -0.36441  -0.36265  -0.35764
 Alpha  occ. eigenvalues --   -0.34866  -0.34793  -0.33713  -0.33432  -0.32728
 Alpha  occ. eigenvalues --   -0.32706  -0.31799  -0.31567  -0.31196  -0.30898
 Alpha  occ. eigenvalues --   -0.30468  -0.30373  -0.30187  -0.29368  -0.29015
 Alpha  occ. eigenvalues --   -0.28956  -0.28760  -0.28137  -0.27903  -0.27821
 Alpha  occ. eigenvalues --   -0.27279  -0.25766
 Alpha virt. eigenvalues --   -0.10489  -0.08444  -0.08027  -0.07100  -0.06609
 Alpha virt. eigenvalues --   -0.06184  -0.06058  -0.05073  -0.05057  -0.04708
 Alpha virt. eigenvalues --   -0.04607  -0.03975  -0.03601  -0.03337  -0.02874

 Mulliken charges:
               1
     1  N   -0.764278
     2  H    0.402737
     3  H    0.434575
     4  H    0.404354
     5  C   -0.105635
     6  H    0.194921
     7  C    0.663520
     8  C   -0.122109
     9  H    0.195401
    10  O   -0.551713
    11  C   -0.464747
    12  H    0.131760
    13  H    0.191064
    14  H    0.159616
    15  C   -0.507712
    16  H    0.121241
    17  H    0.255781
    18  H    0.178112
    19  N   -0.604984
    20  H    0.363678
    21  C   -0.090501
    22  H    0.251092
    23  C    0.617003
    24  C   -0.066373
    25  H    0.132629
    26  O   -0.572078
    27  C   -0.294466
    28  H    0.148064
    29  H    0.142760
    30  C   -0.471297
    31  H    0.173975
    32  H    0.153608
    33  H    0.114098
    34  C   -0.483792
    35  H    0.186359
    36  H    0.178668
    37  H    0.123212
    38  N   -0.633820
    39  H    0.420111
    40  C   -0.050187
    41  H    0.187211
    42  C    0.613889
    43  C   -0.409103
    44  H    0.153046
    45  H    0.182626
    46  O   -0.535465
    47  C    0.169255
    48  C   -0.146561
    49  H    0.127931
    50  C   -0.196577
    51  H    0.173847
    52  C   -0.131832
    53  H    0.132959
    54  C   -0.155497
    55  H    0.123388
    56  C   -0.140604
    57  H    0.121159
    58  N   -0.618875
    59  H    0.349879
    60  C   -0.027742
    61  H    0.183807
    62  C    0.615856
    63  C   -0.294031
    64  H    0.171498
    65  H    0.135722
    66  O   -0.586255
    67  C   -0.065411
    68  H    0.119620
    69  C   -0.443068
    70  H    0.147140
    71  H    0.143167
    72  H    0.147358
    73  C   -0.454515
    74  H    0.146396
    75  H    0.147130
    76  H    0.151753
    77  N   -0.630957
    78  H    0.410000
    79  C   -0.078228
    80  H    0.187224
    81  C    0.623567
    82  C   -0.279652
    83  H    0.149322
    84  H    0.148730
    85  O   -0.535718
    86  C   -0.376062
    87  H    0.203362
    88  H    0.151107
    89  C    0.620148
    90  O   -0.579768
    91  O   -0.653426
    92  N   -0.630438
    93  H    0.396582
    94  C   -0.085391
    95  H    0.230583
    96  C    0.642820
    97  C   -0.414816
    98  H    0.256508
    99  H    0.160557
   100  O   -0.566223
   101  C    0.653688
   102  N   -0.727507
   103  H    0.328966
   104  H    0.359437
   105  O   -0.567092
   106  N   -0.613630
   107  H    0.390260
   108  C   -0.037488
   109  H    0.161670
   110  C    0.631998
   111  C   -0.368076
   112  H    0.168226
   113  H    0.174655
   114  O   -0.544212
   115  C    0.139246
   116  C   -0.182237
   117  H    0.154577
   118  C   -0.203324
   119  H    0.138236
   120  C   -0.156651
   121  H    0.149570
   122  C   -0.169999
   123  H    0.134965
   124  O   -0.665326
   125  H    0.419543
   126  C    0.335280
   127  N   -0.590468
   128  H    0.352352
   129  C   -0.024452
   130  H    0.201088
   131  C    0.587703
   132  C   -0.288235
   133  H    0.142361
   134  H    0.141037
   135  O   -0.484341
   136  C   -0.286917
   137  H    0.206416
   138  H    0.191345
   139  C   -0.196686
   140  H    0.172706
   141  H    0.219405
   142  N   -0.590839
   143  H    0.356416
   144  N   -0.800848
   145  H    0.361760
   146  H    0.448263
   147  N   -0.764040
   148  H    0.373193
   149  H    0.372917
   150  C    0.792420
   151  O   -0.572306
   152  H    0.431395
 Sum of Mulliken charges =   1.00000

 Dipole moment (field-independent basis, Debye):
    X=             -6.1834    Y=            -12.8213    Z=            -16.9907  Tot=             22.1654
 Quadrupole moment (field-independent basis, Debye-Ang):
   XX=           -327.8179   YY=           -328.2885   ZZ=           -256.9004
   XY=             47.8338   XZ=            -66.4848   YZ=            -13.2445

 Normal termination of Gaussian 16 at Mon Aug 15 06:26:48 2022.
