 Gaussian 16, Revision C.01,
 Gaussian 16:  ES64L-G16RevC.01  3-Jul-2019

 ----------------------------------------------------------------------
 # B3LYP/6-31G* empiricaldispersion=gd3bj guess=read geom=check nosymm
 integral(ultrafinegrid)
 ----------------------------------------------------------------------

 ------------------------------------------------------
 Candidate Structure: Conf:315 Charge calc in gas phase
 ------------------------------------------------------
 Structure from the checkpoint file:  "conf-315.chk"
 Charge =  1 Multiplicity = 1

                          Input orientation:
 ---------------------------------------------------------------------
 Center     Atomic      Atomic             Coordinates (Angstroms)
 Number     Number       Type             X           Y           Z
 ---------------------------------------------------------------------
      1          7           0       -7.194871   -4.077289    5.775579
      2          1           0       -7.253274   -4.967551    5.275324
      3          1           0       -6.256704   -4.021488    6.293715
      4          1           0       -7.983108   -4.009417    6.424150
      5          6           0       -7.080513   -2.879744    4.853694
      6          1           0       -7.320971   -3.206848    3.839778
      7          6           0       -5.578034   -2.517553    4.992665
      8          6           0       -8.048158   -1.759787    5.304672
      9          1           0       -9.038476   -2.235822    5.368918
     10          8           0       -4.951498   -3.048399    5.928546
     11          6           0       -7.677131   -1.192263    6.681887
     12          1           0       -6.710372   -0.680035    6.647990
     13          1           0       -8.430767   -0.465319    6.996294
     14          1           0       -7.618766   -1.956999    7.466278
     15          6           0       -8.151019   -0.649411    4.249116
     16          1           0       -7.236539   -0.053018    4.182282
     17          1           0       -8.375868   -1.052187    3.255034
     18          1           0       -8.963560    0.030536    4.520118
     19          7           0       -5.091063   -1.654133    4.122820
     20          1           0       -5.664064   -1.219056    3.398542
     21          6           0       -3.735655   -1.104486    4.150915
     22          1           0       -3.444413   -0.967700    5.195224
     23          6           0       -3.885383    0.253087    3.445760
     24          6           0       -2.731814   -2.072404    3.457456
     25          1           0       -2.856105   -3.017804    4.004540
     26          8           0       -4.865835    0.468031    2.725698
     27          6           0       -1.262422   -1.640983    3.614407
     28          1           0       -1.075772   -0.736520    3.026405
     29          1           0       -0.654629   -2.422996    3.143417
     30          6           0       -3.085612   -2.297836    1.982836
     31          1           0       -2.941254   -1.383844    1.400674
     32          1           0       -4.121324   -2.633740    1.856215
     33          1           0       -2.434198   -3.070662    1.562499
     34          6           0       -0.791133   -1.463795    5.060756
     35          1           0        0.288378   -1.298329    5.089602
     36          1           0       -1.245093   -0.598711    5.560495
     37          1           0       -1.020623   -2.350187    5.664845
     38          7           0       -2.920220    1.161165    3.681513
     39          1           0       -2.078346    0.862799    4.161514
     40          6           0       -2.771085    2.322920    2.826181
     41          1           0       -3.742198    2.822737    2.761464
     42          6           0       -2.377791    1.869224    1.404843
     43          6           0       -1.732359    3.302131    3.443407
     44          1           0       -2.235363    3.869937    4.232256
     45          1           0       -1.439062    4.018949    2.668423
     46          8           0       -1.905710    0.751662    1.186138
     47          6           0       -0.516430    2.610089    4.021580
     48          6           0       -0.377259    2.493210    5.411010
     49          1           0       -1.122605    2.944136    6.062424
     50          6           0        0.454953    2.028326    3.194210
     51          1           0        0.359680    2.121776    2.117007
     52          6           0        0.714605    1.820503    5.963114
     53          1           0        0.816723    1.752322    7.042587
     54          6           0        1.536448    1.333578    3.738558
     55          1           0        2.272812    0.848508    3.099135
     56          6           0        1.666146    1.237401    5.127179
     57          1           0        2.513854    0.705684    5.549526
     58          7           0       -2.575325    2.786064    0.433714
     59          1           0       -2.926686    3.704456    0.671263
     60          6           0       -2.224941    2.528020   -0.968194
     61          1           0       -2.385173    1.457161   -1.114948
     62          6           0       -0.727808    2.823510   -1.193039
     63          6           0       -3.128826    3.322091   -1.905691
     64          1           0       -3.002889    4.393646   -1.704433
     65          1           0       -4.167579    3.058341   -1.663082
     66          8           0       -0.321922    3.813135   -1.791454
     67          6           0       -2.872137    3.070391   -3.405621
     68          1           0       -1.913523    3.538398   -3.650791
     69          6           0       -2.771590    1.577090   -3.747498
     70          1           0       -3.653359    1.025736   -3.393186
     71          1           0       -1.876571    1.114050   -3.316928
     72          1           0       -2.712344    1.439800   -4.832859
     73          6           0       -3.969235    3.753089   -4.230392
     74          1           0       -4.948522    3.294441   -4.040047
     75          1           0       -3.763911    3.666291   -5.302980
     76          1           0       -4.045936    4.819862   -3.989107
     77          7           0        0.093517    1.897945   -0.631972
     78          1           0       -0.329515    1.062830   -0.241822
     79          6           0        1.511780    1.884228   -0.913899
     80          1           0        1.883080    2.910603   -0.833318
     81          6           0        1.750193    1.344474   -2.334838
     82          6           0        2.238262    0.944885    0.086419
     83          1           0        2.320092   -0.052331   -0.351874
     84          1           0        1.609858    0.830289    0.970637
     85          8           0        0.985381    0.554297   -2.869019
     86          6           0        3.625271    1.427247    0.515751
     87          1           0        4.223769    1.729094   -0.348023
     88          1           0        3.524952    2.309965    1.163091
     89          6           0        4.401664    0.334521    1.282803
     90          8           0        5.657184    0.287051    1.059359
     91          8           0        3.755762   -0.400439    2.057871
     92          7           0        2.945058    1.711072   -2.923395
     93          1           0        3.598006    2.164121   -2.293885
     94          6           0        3.565532    0.727159   -3.801642
     95          1           0        2.858673    0.493329   -4.601027
     96          6           0        3.860707   -0.538028   -2.975297
     97          6           0        4.885654    1.301851   -4.386208
     98          1           0        4.656051    1.954841   -5.234140
     99          1           0        5.390780    1.901541   -3.625436
    100          8           0        4.257130   -0.427319   -1.817669
    101          6           0        5.842293    0.178447   -4.770510
    102          7           0        5.570736   -0.480946   -5.921688
    103          1           0        5.909516   -1.436368   -5.993136
    104          1           0        4.753747   -0.242852   -6.466268
    105          8           0        6.774729   -0.152227   -4.032253
    106          7           0        3.695087   -1.739709   -3.577854
    107          1           0        3.525658   -1.795770   -4.572392
    108          6           0        4.192938   -2.917207   -2.899385
    109          1           0        4.854746   -2.519661   -2.122887
    110          6           0        5.094290   -3.717732   -3.834874
    111          6           0        3.102003   -3.743696   -2.151494
    112          1           0        2.226987   -3.092461   -2.061294
    113          1           0        2.797312   -4.612856   -2.744778
    114          8           0        5.400173   -3.327142   -4.963072
    115          6           0        3.586000   -4.156771   -0.777335
    116          6           0        3.931451   -5.476632   -0.458575
    117          1           0        3.797432   -6.269199   -1.192345
    118          6           0        3.770390   -3.168041    0.200605
    119          1           0        3.525338   -2.133300   -0.012486
    120          6           0        4.455574   -5.799494    0.794956
    121          1           0        4.725863   -6.820915    1.042051
    122          6           0        4.282199   -3.473413    1.454910
    123          1           0        4.396109   -2.662108    2.172690
    124          8           0        5.148812   -5.158180    2.965593
    125          1           0        5.184833   -4.368027    3.527448
    126          6           0        4.630449   -4.796269    1.752024
    127          7           0        5.595177   -4.846749   -3.270083
    128          1           0        5.310235   -5.074382   -2.322132
    129          6           0        6.849398   -5.420124   -3.712681
    130          1           0        6.972478   -5.163294   -4.766661
    131          6           0        6.791984   -6.928841   -3.551755
    132          6           0        8.046434   -4.850446   -2.894000
    133          1           0        8.060474   -5.326905   -1.904105
    134          1           0        8.976954   -5.130200   -3.399759
    135          8           0        5.990070   -7.523122   -2.867761
    136          6           0        7.923445   -3.335126   -2.726212
    137          1           0        7.828097   -2.844653   -3.701439
    138          1           0        7.001314   -3.117788   -2.180590
    139          6           0        9.050452   -2.666533   -1.939654
    140          1           0        9.182760   -3.140322   -0.962368
    141          1           0       10.012780   -2.740365   -2.454937
    142          7           0        8.761643   -1.239463   -1.751847
    143          1           0        8.757166   -0.715374   -2.621222
    144          7           0        7.558908   -1.425968    0.265950
    145          1           0        6.812762   -1.003015    0.859287
    146          1           0        8.262205   -2.020984    0.676072
    147          7           0        7.102667    0.290436   -1.198857
    148          1           0        6.391142    0.554424   -0.486779
    149          1           0        6.908128    0.431902   -2.189466
    150          6           0        7.797968   -0.801276   -0.891814
    151          8           0        7.797286   -7.528467   -4.222961
    152          1           0        7.731127   -8.484398   -4.035923
 ---------------------------------------------------------------------

 SCF Done:  E(RB3LYP) =  -3586.98464560     A.U. after    2 cycles

 Alpha  occ. eigenvalues --  -19.26010 -19.25935 -19.21396 -19.21092 -19.20276
 Alpha  occ. eigenvalues --  -19.19842 -19.19232 -19.18770 -19.17946 -19.17155
 Alpha  occ. eigenvalues --  -19.16193 -19.11724 -19.10782 -14.59099 -14.48404
 Alpha  occ. eigenvalues --  -14.44403 -14.43639 -14.42868 -14.42844 -14.42512
 Alpha  occ. eigenvalues --  -14.42062 -14.41379 -14.41087 -14.39964 -14.39277
 Alpha  occ. eigenvalues --  -10.42586 -10.39837 -10.38264 -10.37835 -10.37732
 Alpha  occ. eigenvalues --  -10.37076 -10.36079 -10.35636 -10.34877 -10.34052
 Alpha  occ. eigenvalues --  -10.33672 -10.33026 -10.32771 -10.31458 -10.30809
 Alpha  occ. eigenvalues --  -10.30284 -10.30058 -10.29517 -10.29354 -10.29298
 Alpha  occ. eigenvalues --  -10.28895 -10.28595 -10.28426 -10.27696 -10.27660
 Alpha  occ. eigenvalues --  -10.27177 -10.27011 -10.26093 -10.25468 -10.25010
 Alpha  occ. eigenvalues --  -10.24554 -10.24481 -10.24226 -10.24090 -10.23861
 Alpha  occ. eigenvalues --  -10.23745 -10.23680 -10.23523 -10.23441 -10.23145
 Alpha  occ. eigenvalues --  -10.23019 -10.22946 -10.22696 -10.22389 -10.22305
 Alpha  occ. eigenvalues --  -10.21979 -10.21664 -10.21159 -10.21068 -10.21051
 Alpha  occ. eigenvalues --   -1.18537  -1.16853  -1.13362  -1.12782  -1.11380
 Alpha  occ. eigenvalues --   -1.11017  -1.10711  -1.10146  -1.09414  -1.08985
 Alpha  occ. eigenvalues --   -1.07921  -1.07838  -1.06776  -1.05291  -1.04171
 Alpha  occ. eigenvalues --   -1.01459  -0.99774  -0.99562  -0.99049  -0.98453
 Alpha  occ. eigenvalues --   -0.97826  -0.97091  -0.96904  -0.95382  -0.94735
 Alpha  occ. eigenvalues --   -0.93736  -0.91117  -0.89516  -0.89332  -0.86792
 Alpha  occ. eigenvalues --   -0.86591  -0.85710  -0.85566  -0.85183  -0.83650
 Alpha  occ. eigenvalues --   -0.82735  -0.81636  -0.81204  -0.80956  -0.80515
 Alpha  occ. eigenvalues --   -0.79446  -0.78887  -0.78210  -0.77989  -0.77818
 Alpha  occ. eigenvalues --   -0.75741  -0.74860  -0.74826  -0.73555  -0.73242
 Alpha  occ. eigenvalues --   -0.72640  -0.72155  -0.71964  -0.70939  -0.70057
 Alpha  occ. eigenvalues --   -0.69072  -0.68829  -0.68490  -0.68291  -0.67835
 Alpha  occ. eigenvalues --   -0.67031  -0.66296  -0.66249  -0.66073  -0.65723
 Alpha  occ. eigenvalues --   -0.65664  -0.65380  -0.64910  -0.64668  -0.64264
 Alpha  occ. eigenvalues --   -0.63804  -0.63617  -0.63426  -0.62622  -0.62525
 Alpha  occ. eigenvalues --   -0.61555  -0.61068  -0.60968  -0.60471  -0.59997
 Alpha  occ. eigenvalues --   -0.59731  -0.59392  -0.58196  -0.57902  -0.57599
 Alpha  occ. eigenvalues --   -0.57191  -0.56545  -0.56433  -0.56212  -0.56182
 Alpha  occ. eigenvalues --   -0.55714  -0.55342  -0.55267  -0.55151  -0.54938
 Alpha  occ. eigenvalues --   -0.54711  -0.54401  -0.54034  -0.53705  -0.53547
 Alpha  occ. eigenvalues --   -0.53192  -0.53105  -0.52893  -0.52357  -0.52133
 Alpha  occ. eigenvalues --   -0.52033  -0.51763  -0.51303  -0.51230  -0.51222
 Alpha  occ. eigenvalues --   -0.50578  -0.50154  -0.50031  -0.49968  -0.49841
 Alpha  occ. eigenvalues --   -0.49709  -0.49555  -0.49518  -0.49486  -0.49313
 Alpha  occ. eigenvalues --   -0.49103  -0.48971  -0.48207  -0.48013  -0.47765
 Alpha  occ. eigenvalues --   -0.47613  -0.47282  -0.47189  -0.47074  -0.46946
 Alpha  occ. eigenvalues --   -0.46828  -0.46775  -0.46708  -0.46585  -0.46536
 Alpha  occ. eigenvalues --   -0.46412  -0.46330  -0.46194  -0.45960  -0.45827
 Alpha  occ. eigenvalues --   -0.45405  -0.45273  -0.45111  -0.44758  -0.44562
 Alpha  occ. eigenvalues --   -0.44400  -0.44307  -0.44132  -0.44018  -0.43962
 Alpha  occ. eigenvalues --   -0.43784  -0.43401  -0.43362  -0.42957  -0.42870
 Alpha  occ. eigenvalues --   -0.42497  -0.42364  -0.41900  -0.41866  -0.41448
 Alpha  occ. eigenvalues --   -0.41205  -0.41121  -0.41057  -0.40881  -0.40664
 Alpha  occ. eigenvalues --   -0.40607  -0.40486  -0.40313  -0.39624  -0.39247
 Alpha  occ. eigenvalues --   -0.39055  -0.38912  -0.38822  -0.38718  -0.38029
 Alpha  occ. eigenvalues --   -0.38003  -0.37226  -0.37198  -0.37186  -0.36727
 Alpha  occ. eigenvalues --   -0.36636  -0.36498  -0.36377  -0.35182  -0.35115
 Alpha  occ. eigenvalues --   -0.34795  -0.34120  -0.33966  -0.33799  -0.33013
 Alpha  occ. eigenvalues --   -0.32723  -0.32633  -0.32525  -0.32277  -0.31722
 Alpha  occ. eigenvalues --   -0.31601  -0.31336  -0.30913  -0.30108  -0.29886
 Alpha  occ. eigenvalues --   -0.29407  -0.28936  -0.28779  -0.27046  -0.26473
 Alpha  occ. eigenvalues --   -0.25512  -0.24947
 Alpha virt. eigenvalues --   -0.11403  -0.10589  -0.07100  -0.06402  -0.06252
 Alpha virt. eigenvalues --   -0.06146  -0.05483  -0.05318  -0.05090  -0.04997
 Alpha virt. eigenvalues --   -0.04336  -0.04175  -0.04025  -0.03451  -0.03376

 Mulliken charges:
               1
     1  N   -0.763925
     2  H    0.414690
     3  H    0.436122
     4  H    0.409067
     5  C   -0.104786
     6  H    0.209879
     7  C    0.655405
     8  C   -0.110348
     9  H    0.157203
    10  O   -0.555481
    11  C   -0.469978
    12  H    0.186486
    13  H    0.192524
    14  H    0.141174
    15  C   -0.480405
    16  H    0.190438
    17  H    0.165792
    18  H    0.187052
    19  N   -0.602454
    20  H    0.381580
    21  C   -0.089239
    22  H    0.190743
    23  C    0.651860
    24  C   -0.072422
    25  H    0.142425
    26  O   -0.559488
    27  C   -0.295966
    28  H    0.185608
    29  H    0.157677
    30  C   -0.479970
    31  H    0.206845
    32  H    0.116079
    33  H    0.159849
    34  C   -0.469664
    35  H    0.180672
    36  H    0.132143
    37  H    0.144898
    38  N   -0.611393
    39  H    0.378404
    40  C   -0.068014
    41  H    0.180303
    42  C    0.665091
    43  C   -0.370016
    44  H    0.166224
    45  H    0.172021
    46  O   -0.548526
    47  C    0.107983
    48  C   -0.196927
    49  H    0.125602
    50  C   -0.192964
    51  H    0.151995
    52  C   -0.120505
    53  H    0.136128
    54  C   -0.155495
    55  H    0.217499
    56  C   -0.149915
    57  H    0.146786
    58  N   -0.609246
    59  H    0.337568
    60  C   -0.069786
    61  H    0.186420
    62  C    0.640659
    63  C   -0.275606
    64  H    0.145322
    65  H    0.133476
    66  O   -0.528619
    67  C   -0.078192
    68  H    0.169629
    69  C   -0.468812
    70  H    0.129969
    71  H    0.170277
    72  H    0.146045
    73  C   -0.446691
    74  H    0.134182
    75  H    0.147036
    76  H    0.143303
    77  N   -0.621525
    78  H    0.367674
    79  C   -0.040433
    80  H    0.170875
    81  C    0.623893
    82  C   -0.316814
    83  H    0.180853
    84  H    0.170958
    85  O   -0.525827
    86  C   -0.360001
    87  H    0.119176
    88  H    0.149327
    89  C    0.633331
    90  O   -0.631511
    91  O   -0.562006
    92  N   -0.579536
    93  H    0.339820
    94  C   -0.054537
    95  H    0.174765
    96  C    0.605156
    97  C   -0.371726
    98  H    0.188752
    99  H    0.177437
   100  O   -0.531332
   101  C    0.591025
   102  N   -0.726972
   103  H    0.385692
   104  H    0.341649
   105  O   -0.535363
   106  N   -0.583217
   107  H    0.333815
   108  C   -0.075316
   109  H    0.232653
   110  C    0.610227
   111  C   -0.371929
   112  H    0.183722
   113  H    0.160162
   114  O   -0.558924
   115  C    0.125889
   116  C   -0.237442
   117  H    0.152958
   118  C   -0.207282
   119  H    0.186904
   120  C   -0.164056
   121  H    0.142186
   122  C   -0.218835
   123  H    0.177254
   124  O   -0.645379
   125  H    0.410818
   126  C    0.343993
   127  N   -0.596934
   128  H    0.366356
   129  C   -0.057658
   130  H    0.206047
   131  C    0.589780
   132  C   -0.283789
   133  H    0.154610
   134  H    0.170494
   135  O   -0.457170
   136  C   -0.284290
   137  H    0.172575
   138  H    0.163066
   139  C   -0.168849
   140  H    0.155814
   141  H    0.172822
   142  N   -0.583766
   143  H    0.358457
   144  N   -0.767797
   145  H    0.413487
   146  H    0.344279
   147  N   -0.799890
   148  H    0.421669
   149  H    0.379425
   150  C    0.729824
   151  O   -0.564092
   152  H    0.421228
 Sum of Mulliken charges =   1.00000

 Dipole moment (field-independent basis, Debye):
    X=            -16.9498    Y=            -13.6723    Z=             12.6533  Tot=             25.1860
 Quadrupole moment (field-independent basis, Debye-Ang):
   XX=           -124.7768   YY=           -363.2043   ZZ=           -284.0361
   XY=             40.5160   XZ=           -204.8550   YZ=            -39.4078

 Normal termination of Gaussian 16 at Mon Aug 15 06:25:15 2022.
