 Gaussian 16, Revision C.01,
 Gaussian 16:  ES64L-G16RevC.01  3-Jul-2019

 ----------------------------------------------------------------------
 # B3LYP/6-31G* empiricaldispersion=gd3bj guess=read geom=check nosymm
 integral(ultrafinegrid)
 ----------------------------------------------------------------------

 -----------------------------------------------------
 Candidate Structure: Conf:49 Charge calc in gas phase
 -----------------------------------------------------
 Structure from the checkpoint file:  "conf-49.chk"
 Charge =  1 Multiplicity = 1

                          Input orientation:
 ---------------------------------------------------------------------
 Center     Atomic      Atomic             Coordinates (Angstroms)
 Number     Number       Type             X           Y           Z
 ---------------------------------------------------------------------
      1          7           0       -2.272219    4.578735    6.453598
      2          1           0       -2.041228    5.423020    5.922172
      3          1           0       -3.316289    4.486751    6.509819
      4          1           0       -1.847565    4.644795    7.382251
      5          6           0       -1.874068    3.309686    5.722320
      6          1           0       -0.987729    3.480769    5.104684
      7          6           0       -3.113308    3.022159    4.864074
      8          6           0       -1.621041    2.205318    6.775894
      9          1           0       -2.440909    2.272639    7.508236
     10          8           0       -4.225221    3.329072    5.333446
     11          6           0       -1.670878    0.805652    6.148356
     12          1           0       -0.971811    0.729250    5.314868
     13          1           0       -1.380763    0.062854    6.896764
     14          1           0       -2.674046    0.555714    5.791339
     15          6           0       -0.273750    2.436630    7.476754
     16          1           0        0.551229    2.261633    6.778667
     17          1           0       -0.168243    3.450600    7.891477
     18          1           0       -0.162350    1.740323    8.313113
     19          7           0       -2.847430    2.437317    3.704973
     20          1           0       -1.835739    2.374863    3.424485
     21          6           0       -3.845529    1.816480    2.844821
     22          1           0       -4.792552    1.774884    3.389698
     23          6           0       -3.295614    0.415935    2.573867
     24          6           0       -4.018111    2.608496    1.522976
     25          1           0       -3.012525    2.703528    1.095434
     26          8           0       -2.105958    0.272112    2.311693
     27          6           0       -4.563264    4.024830    1.788047
     28          1           0       -4.537631    4.566945    0.834030
     29          1           0       -3.874031    4.554927    2.456643
     30          6           0       -4.869299    1.836417    0.505705
     31          1           0       -5.790458    1.435884    0.944397
     32          1           0       -4.295122    1.011978    0.075153
     33          1           0       -5.153772    2.492707   -0.322964
     34          6           0       -5.976405    4.088250    2.376595
     35          1           0       -6.312513    5.128363    2.444752
     36          1           0       -6.701220    3.552198    1.753982
     37          1           0       -6.008154    3.670897    3.387902
     38          7           0       -4.152248   -0.639412    2.596045
     39          1           0       -5.074208   -0.525250    3.002687
     40          6           0       -3.609252   -2.000907    2.557547
     41          1           0       -3.018048   -2.189334    3.459932
     42          6           0       -2.623988   -2.165923    1.392826
     43          6           0       -4.762994   -3.021656    2.472223
     44          1           0       -4.314637   -4.020227    2.496415
     45          1           0       -5.266626   -2.913853    1.505422
     46          8           0       -1.570264   -2.776794    1.528837
     47          6           0       -5.749047   -2.840399    3.602523
     48          6           0       -5.430631   -3.263496    4.899791
     49          1           0       -4.491409   -3.781590    5.078362
     50          6           0       -6.965390   -2.178849    3.389302
     51          1           0       -7.232778   -1.862963    2.382905
     52          6           0       -6.308544   -3.033356    5.956941
     53          1           0       -6.051844   -3.375568    6.955245
     54          6           0       -7.845783   -1.943628    4.448242
     55          1           0       -8.788563   -1.436644    4.264395
     56          6           0       -7.517866   -2.369771    5.734450
     57          1           0       -8.202250   -2.193159    6.558755
     58          7           0       -3.040976   -1.644202    0.200271
     59          1           0       -3.816927   -0.994429    0.243942
     60          6           0       -2.057606   -1.401511   -0.854665
     61          1           0       -1.422192   -2.288251   -0.883916
     62          6           0       -1.206831   -0.183591   -0.453713
     63          6           0       -2.746640   -1.198700   -2.203397
     64          1           0       -3.498426   -0.406029   -2.103075
     65          1           0       -3.281546   -2.126353   -2.444170
     66          8           0       -1.548652    0.968694   -0.750995
     67          6           0       -1.800148   -0.823679   -3.359134
     68          1           0       -1.424605    0.185519   -3.150689
     69          6           0       -0.597296   -1.770609   -3.473180
     70          1           0       -0.922012   -2.811680   -3.595236
     71          1           0        0.052046   -1.723213   -2.591416
     72          1           0        0.014441   -1.513135   -4.345882
     73          6           0       -2.582660   -0.773112   -4.676086
     74          1           0       -2.966357   -1.765729   -4.943261
     75          1           0       -1.945606   -0.429762   -5.499104
     76          1           0       -3.437568   -0.090913   -4.605335
     77          7           0       -0.074479   -0.475947    0.227049
     78          1           0        0.001633   -1.410424    0.617527
     79          6           0        0.762201    0.594666    0.780390
     80          1           0        0.097378    1.382185    1.144334
     81          6           0        1.608137    1.124646   -0.383893
     82          6           0        1.655843    0.127227    1.925384
     83          1           0        2.248767    1.000265    2.215456
     84          1           0        2.370021   -0.616809    1.560566
     85          8           0        2.717148    0.660855   -0.671204
     86          6           0        0.868105   -0.404979    3.144055
     87          1           0       -0.141058    0.010750    3.127162
     88          1           0        0.780179   -1.493007    3.115547
     89          6           0        1.541034   -0.020620    4.456684
     90          8           0        2.091712   -0.811019    5.189983
     91          8           0        1.488463    1.293580    4.759473
     92          7           0        1.023324    2.124078   -1.094005
     93          1           0        0.015591    2.227993   -0.968822
     94          6           0        1.660495    2.593137   -2.311244
     95          1           0        2.728958    2.606936   -2.080237
     96          6           0        1.262000    4.055536   -2.566320
     97          6           0        1.432330    1.686773   -3.546440
     98          1           0        0.922888    0.773428   -3.226069
     99          1           0        0.805895    2.198280   -4.277406
    100          8           0        0.613536    4.413661   -3.557115
    101          6           0        2.746244    1.301225   -4.207266
    102          7           0        3.613240    0.652629   -3.413957
    103          1           0        4.516390    0.384411   -3.779404
    104          1           0        3.410681    0.516398   -2.416694
    105          8           0        2.984531    1.577404   -5.398010
    106          7           0        1.739196    4.890845   -1.628390
    107          1           0        2.091492    4.476590   -0.770331
    108          6           0        1.443895    6.324589   -1.568312
    109          1           0        0.406320    6.463781   -1.892160
    110          6           0        2.394343    7.033626   -2.560908
    111          6           0        1.640950    6.830605   -0.122790
    112          1           0        2.706182    7.037408    0.015082
    113          1           0        1.122805    7.792124   -0.036551
    114          8           0        3.405359    7.627480   -2.213139
    115          6           0        1.152745    5.829020    0.896415
    116          6           0       -0.212567    5.554475    1.056964
    117          1           0       -0.944629    6.150070    0.513261
    118          6           0        2.058370    5.031575    1.613649
    119          1           0        3.125417    5.230654    1.522715
    120          6           0       -0.655065    4.530534    1.884592
    121          1           0       -1.717728    4.340570    1.988326
    122          6           0        1.631624    3.998352    2.445258
    123          1           0        2.351490    3.408031    3.005718
    124          8           0       -0.169851    2.719184    3.365930
    125          1           0        0.891885    1.821226    4.127930
    126          6           0        0.254735    3.705628    2.596192
    127          7           0        2.041918    6.867610   -3.867761
    128          1           0        1.268178    6.237796   -4.061635
    129          6           0        2.976331    7.197221   -4.920065
    130          1           0        3.990319    6.994580   -4.550940
    131          6           0        3.004387    8.676861   -5.309016
    132          6           0        2.725536    6.362056   -6.186629
    133          1           0        1.742682    6.622301   -6.603831
    134          1           0        3.473033    6.688498   -6.918422
    135          8           0        3.761953    9.107589   -6.152394
    136          6           0        2.790080    4.849057   -5.954407
    137          1           0        3.713511    4.578815   -5.425264
    138          1           0        1.963327    4.525731   -5.317188
    139          6           0        2.701973    4.045502   -7.252903
    140          1           0        2.498651    2.998170   -7.033883
    141          1           0        1.891596    4.415888   -7.888620
    142          7           0        3.934465    4.122260   -8.056551
    143          1           0        4.112593    4.999147   -8.528460
    144          7           0        4.958944    2.197849   -7.207139
    145          1           0        5.600723    1.445115   -7.412808
    146          1           0        4.240349    2.000420   -6.486006
    147          7           0        5.977571    3.420204   -8.881517
    148          1           0        6.871953    2.993251   -8.690511
    149          1           0        5.964411    4.159552   -9.568357
    150          6           0        4.942612    3.248412   -8.026013
    151          8           0        2.113491    9.433864   -4.648811
    152          1           0        2.250172   10.348891   -4.960836
 ---------------------------------------------------------------------

 SCF Done:  E(RB3LYP) =  -3587.00883431     A.U. after    3 cycles

 Alpha  occ. eigenvalues --  -19.25932 -19.21596 -19.21099 -19.20420 -19.19963
 Alpha  occ. eigenvalues --  -19.19619 -19.19596 -19.18792 -19.18671 -19.18262
 Alpha  occ. eigenvalues --  -19.17665 -19.14933 -19.14272 -14.55722 -14.50450
 Alpha  occ. eigenvalues --  -14.50413 -14.48739 -14.44277 -14.43796 -14.43643
 Alpha  occ. eigenvalues --  -14.43116 -14.43083 -14.42496 -14.42388 -14.41706
 Alpha  occ. eigenvalues --  -10.46468 -10.38472 -10.38209 -10.37524 -10.36977
 Alpha  occ. eigenvalues --  -10.36530 -10.35831 -10.35441 -10.35106 -10.34539
 Alpha  occ. eigenvalues --  -10.33571 -10.32887 -10.32831 -10.31668 -10.30874
 Alpha  occ. eigenvalues --  -10.30716 -10.30631 -10.29863 -10.29401 -10.28837
 Alpha  occ. eigenvalues --  -10.28655 -10.27871 -10.27761 -10.27492 -10.27214
 Alpha  occ. eigenvalues --  -10.26721 -10.26406 -10.26089 -10.25540 -10.25392
 Alpha  occ. eigenvalues --  -10.25278 -10.25213 -10.25100 -10.24906 -10.24883
 Alpha  occ. eigenvalues --  -10.24717 -10.24458 -10.24404 -10.24394 -10.24336
 Alpha  occ. eigenvalues --  -10.23946 -10.23496 -10.23373 -10.23302 -10.23117
 Alpha  occ. eigenvalues --  -10.23022 -10.23020 -10.22158 -10.22105 -10.21857
 Alpha  occ. eigenvalues --   -1.16891  -1.14882  -1.13514  -1.12553  -1.12320
 Alpha  occ. eigenvalues --   -1.12032  -1.11220  -1.10329  -1.09893  -1.09640
 Alpha  occ. eigenvalues --   -1.09554  -1.09183  -1.07716  -1.04331  -1.02991
 Alpha  occ. eigenvalues --   -1.02605  -1.01554  -1.01124  -1.00919  -1.00551
 Alpha  occ. eigenvalues --   -0.99703  -0.99242  -0.99109  -0.98931  -0.98420
 Alpha  occ. eigenvalues --   -0.92127  -0.89972  -0.89204  -0.89006  -0.88085
 Alpha  occ. eigenvalues --   -0.87513  -0.86553  -0.85978  -0.84723  -0.84243
 Alpha  occ. eigenvalues --   -0.83155  -0.82205  -0.81391  -0.80795  -0.79811
 Alpha  occ. eigenvalues --   -0.79052  -0.78909  -0.78505  -0.78191  -0.77042
 Alpha  occ. eigenvalues --   -0.76920  -0.75886  -0.75825  -0.74774  -0.74260
 Alpha  occ. eigenvalues --   -0.72759  -0.72373  -0.71206  -0.70736  -0.70481
 Alpha  occ. eigenvalues --   -0.70183  -0.70157  -0.69108  -0.68428  -0.68165
 Alpha  occ. eigenvalues --   -0.68030  -0.67516  -0.67019  -0.66440  -0.66094
 Alpha  occ. eigenvalues --   -0.65893  -0.65698  -0.65042  -0.64730  -0.64663
 Alpha  occ. eigenvalues --   -0.64558  -0.64218  -0.64058  -0.63625  -0.63086
 Alpha  occ. eigenvalues --   -0.63062  -0.62491  -0.62335  -0.61903  -0.61397
 Alpha  occ. eigenvalues --   -0.60994  -0.60222  -0.59295  -0.59082  -0.58773
 Alpha  occ. eigenvalues --   -0.58516  -0.57672  -0.57511  -0.57385  -0.57046
 Alpha  occ. eigenvalues --   -0.56561  -0.56218  -0.55952  -0.55743  -0.55377
 Alpha  occ. eigenvalues --   -0.55056  -0.54768  -0.54715  -0.54057  -0.53905
 Alpha  occ. eigenvalues --   -0.53673  -0.53597  -0.53360  -0.52927  -0.52725
 Alpha  occ. eigenvalues --   -0.52264  -0.52066  -0.51987  -0.51453  -0.51403
 Alpha  occ. eigenvalues --   -0.51200  -0.51100  -0.50826  -0.50608  -0.50402
 Alpha  occ. eigenvalues --   -0.50189  -0.49955  -0.49730  -0.49625  -0.49391
 Alpha  occ. eigenvalues --   -0.49201  -0.49018  -0.48469  -0.48326  -0.48246
 Alpha  occ. eigenvalues --   -0.48237  -0.47836  -0.47593  -0.47494  -0.47300
 Alpha  occ. eigenvalues --   -0.47154  -0.47056  -0.46666  -0.46546  -0.46381
 Alpha  occ. eigenvalues --   -0.46222  -0.46128  -0.46030  -0.45925  -0.45827
 Alpha  occ. eigenvalues --   -0.45552  -0.45344  -0.45050  -0.44976  -0.44856
 Alpha  occ. eigenvalues --   -0.44607  -0.44485  -0.44419  -0.44270  -0.43946
 Alpha  occ. eigenvalues --   -0.43810  -0.43576  -0.43543  -0.43183  -0.42986
 Alpha  occ. eigenvalues --   -0.42854  -0.42706  -0.42529  -0.42334  -0.42192
 Alpha  occ. eigenvalues --   -0.42111  -0.42084  -0.41890  -0.41751  -0.41701
 Alpha  occ. eigenvalues --   -0.40947  -0.40757  -0.40436  -0.40288  -0.40248
 Alpha  occ. eigenvalues --   -0.39424  -0.39338  -0.39052  -0.38910  -0.38898
 Alpha  occ. eigenvalues --   -0.38723  -0.38605  -0.38391  -0.38367  -0.38141
 Alpha  occ. eigenvalues --   -0.37733  -0.36871  -0.36408  -0.35927  -0.35768
 Alpha  occ. eigenvalues --   -0.35334  -0.35069  -0.34812  -0.34640  -0.34596
 Alpha  occ. eigenvalues --   -0.34495  -0.34397  -0.34178  -0.32881  -0.32638
 Alpha  occ. eigenvalues --   -0.32114  -0.31764  -0.31492  -0.31229  -0.31058
 Alpha  occ. eigenvalues --   -0.30810  -0.30466  -0.30342  -0.29792  -0.29459
 Alpha  occ. eigenvalues --   -0.27701  -0.23952
 Alpha virt. eigenvalues --   -0.10422  -0.07834  -0.07463  -0.07147  -0.06993
 Alpha virt. eigenvalues --   -0.06829  -0.06762  -0.06548  -0.05793  -0.05419
 Alpha virt. eigenvalues --   -0.05313  -0.05205  -0.04693  -0.03675  -0.03651

 Mulliken charges:
               1
     1  N   -0.750919
     2  H    0.411780
     3  H    0.414998
     4  H    0.404492
     5  C   -0.131506
     6  H    0.248479
     7  C    0.618664
     8  C   -0.096730
     9  H    0.138049
    10  O   -0.572884
    11  C   -0.472805
    12  H    0.191994
    13  H    0.174148
    14  H    0.149930
    15  C   -0.480708
    16  H    0.228622
    17  H    0.107922
    18  H    0.177657
    19  N   -0.628737
    20  H    0.450129
    21  C   -0.078434
    22  H    0.169933
    23  C    0.637597
    24  C   -0.082542
    25  H    0.175491
    26  O   -0.514788
    27  C   -0.260589
    28  H    0.142814
    29  H    0.135200
    30  C   -0.487240
    31  H    0.140282
    32  H    0.161758
    33  H    0.163274
    34  C   -0.472511
    35  H    0.150763
    36  H    0.146879
    37  H    0.172081
    38  N   -0.648210
    39  H    0.348244
    40  C   -0.023297
    41  H    0.187774
    42  C    0.638621
    43  C   -0.386313
    44  H    0.188176
    45  H    0.162109
    46  O   -0.537591
    47  C    0.151157
    48  C   -0.178003
    49  H    0.143749
    50  C   -0.212230
    51  H    0.132707
    52  C   -0.127314
    53  H    0.147221
    54  C   -0.124795
    55  H    0.144536
    56  C   -0.128490
    57  H    0.146027
    58  N   -0.602554
    59  H    0.344321
    60  C   -0.068607
    61  H    0.181047
    62  C    0.661649
    63  C   -0.267621
    64  H    0.145257
    65  H    0.147922
    66  O   -0.576381
    67  C   -0.092032
    68  H    0.147005
    69  C   -0.460727
    70  H    0.151174
    71  H    0.146283
    72  H    0.141610
    73  C   -0.444957
    74  H    0.146208
    75  H    0.140064
    76  H    0.146763
    77  N   -0.606391
    78  H    0.375819
    79  C   -0.069652
    80  H    0.216430
    81  C    0.632197
    82  C   -0.311604
    83  H    0.171035
    84  H    0.174463
    85  O   -0.555548
    86  C   -0.412204
    87  H    0.219975
    88  H    0.171494
    89  C    0.568232
    90  O   -0.460166
    91  O   -0.649873
    92  N   -0.607974
    93  H    0.384445
    94  C   -0.078132
    95  H    0.189924
    96  C    0.617458
    97  C   -0.381189
    98  H    0.203938
    99  H    0.204339
   100  O   -0.548915
   101  C    0.578252
   102  N   -0.741145
   103  H    0.336521
   104  H    0.415987
   105  O   -0.560863
   106  N   -0.588159
   107  H    0.366995
   108  C   -0.054379
   109  H    0.173173
   110  C    0.626974
   111  C   -0.391553
   112  H    0.187178
   113  H    0.163062
   114  O   -0.512902
   115  C    0.127988
   116  C   -0.188608
   117  H    0.112676
   118  C   -0.225102
   119  H    0.128679
   120  C   -0.220664
   121  H    0.118944
   122  C   -0.212349
   123  H    0.139702
   124  O   -0.771364
   125  H    0.474793
   126  C    0.426502
   127  N   -0.624279
   128  H    0.368714
   129  C   -0.022489
   130  H    0.192162
   131  C    0.603732
   132  C   -0.315177
   133  H    0.158313
   134  H    0.153091
   135  O   -0.474429
   136  C   -0.289250
   137  H    0.143317
   138  H    0.208018
   139  C   -0.195564
   140  H    0.218683
   141  H    0.180435
   142  N   -0.590197
   143  H    0.357653
   144  N   -0.792715
   145  H    0.363012
   146  H    0.439099
   147  N   -0.767260
   148  H    0.376376
   149  H    0.375180
   150  C    0.810821
   151  O   -0.547371
   152  H    0.418639
 Sum of Mulliken charges =   1.00000

 Dipole moment (field-independent basis, Debye):
    X=              0.8032    Y=             15.9328    Z=            -14.2974  Tot=             21.4223
 Quadrupole moment (field-independent basis, Debye-Ang):
   XX=           -312.5097   YY=           -369.4716   ZZ=           -147.8363
   XY=             17.4654   XZ=           -196.6769   YZ=            -15.2436

 Normal termination of Gaussian 16 at Mon Aug 15 06:28:32 2022.
