 Gaussian 16, Revision C.01,
 Gaussian 16:  ES64L-G16RevC.01  3-Jul-2019

 ----------------------------------------------------------------------
 # B3LYP/6-31G* empiricaldispersion=gd3bj guess=read geom=check nosymm
 integral(ultrafinegrid)
 ----------------------------------------------------------------------

 ------------------------------------------------------
 Candidate Structure: Conf:961 Charge calc in gas phase
 ------------------------------------------------------
 Structure from the checkpoint file:  "conf-961.chk"
 Charge =  1 Multiplicity = 1

                          Input orientation:
 ---------------------------------------------------------------------
 Center     Atomic      Atomic             Coordinates (Angstroms)
 Number     Number       Type             X           Y           Z
 ---------------------------------------------------------------------
      1          7           0       -8.276247   -4.147346    4.850281
      2          1           0       -8.790368   -4.523853    4.050601
      3          1           0       -7.259983   -4.515873    4.824691
      4          1           0       -8.764350   -4.408208    5.708976
      5          6           0       -8.007254   -2.660779    4.741840
      6          1           0       -8.690183   -2.234603    4.002694
      7          6           0       -6.536562   -2.664594    4.235989
      8          6           0       -8.202764   -1.977789    6.114984
      9          1           0       -7.502079   -2.455332    6.815032
     10          8           0       -5.899872   -3.726309    4.396896
     11          6           0       -7.869691   -0.479708    6.041668
     12          1           0       -8.500453    0.029396    5.302666
     13          1           0       -8.067156   -0.018887    7.013560
     14          1           0       -6.826399   -0.286421    5.788094
     15          6           0       -9.640005   -2.164849    6.628411
     16          1           0      -10.364094   -1.721811    5.934778
     17          1           0       -9.927270   -3.212496    6.790866
     18          1           0       -9.754550   -1.664794    7.594048
     19          7           0       -6.087957   -1.559038    3.685359
     20          1           0       -6.638284   -0.696367    3.625644
     21          6           0       -4.712024   -1.327286    3.236823
     22          1           0       -4.030190   -1.826267    3.928117
     23          6           0       -4.578164    0.204384    3.331455
     24          6           0       -4.510311   -1.894087    1.800147
     25          1           0       -5.014365   -2.871052    1.823335
     26          8           0       -5.616447    0.889810    3.362903
     27          6           0       -3.034893   -2.160351    1.465872
     28          1           0       -2.483940   -1.215772    1.443866
     29          1           0       -3.001148   -2.545287    0.439666
     30          6           0       -5.183171   -1.014392    0.740300
     31          1           0       -4.653158   -0.062799    0.633658
     32          1           0       -6.230194   -0.798530    0.983813
     33          1           0       -5.159829   -1.521775   -0.229800
     34          6           0       -2.351062   -3.155759    2.407074
     35          1           0       -1.391209   -3.468710    1.993033
     36          1           0       -2.117209   -2.702713    3.374559
     37          1           0       -2.977195   -4.044079    2.564953
     38          7           0       -3.343322    0.703000    3.386918
     39          1           0       -2.496347    0.111657    3.313878
     40          6           0       -3.108149    2.129414    3.281456
     41          1           0       -4.026623    2.641184    3.582586
     42          6           0       -2.846381    2.476491    1.796049
     43          6           0       -1.956912    2.502848    4.261375
     44          1           0       -1.114705    1.837202    4.055762
     45          1           0       -2.323054    2.243745    5.261420
     46          8           0       -2.791525    1.596488    0.930885
     47          6           0       -1.542517    3.952010    4.215101
     48          6           0       -0.366793    4.338166    3.560341
     49          1           0        0.279293    3.576005    3.135850
     50          6           0       -2.380118    4.951175    4.732967
     51          1           0       -3.295184    4.666822    5.248095
     52          6           0       -0.047691    5.685425    3.395528
     53          1           0        0.844270    5.959668    2.842707
     54          6           0       -2.060416    6.300872    4.579548
     55          1           0       -2.721894    7.062476    4.982876
     56          6           0       -0.895795    6.671118    3.902561
     57          1           0       -0.653424    7.721437    3.769696
     58          7           0       -2.704281    3.791946    1.508659
     59          1           0       -2.637961    4.446011    2.277883
     60          6           0       -2.261747    4.277872    0.196565
     61          1           0       -2.814324    3.703173   -0.550958
     62          6           0       -0.755522    3.977611    0.031992
     63          6           0       -2.575444    5.765348    0.065619
     64          1           0       -2.093147    6.298595    0.894591
     65          1           0       -3.660895    5.886202    0.184069
     66          8           0        0.129413    4.804135    0.243305
     67          6           0       -2.125200    6.402832   -1.262080
     68          1           0       -1.030305    6.433677   -1.249686
     69          6           0       -2.562763    5.589124   -2.487748
     70          1           0       -3.647432    5.416651   -2.484876
     71          1           0       -2.059784    4.616820   -2.534544
     72          1           0       -2.315755    6.124729   -3.411316
     73          6           0       -2.646972    7.842118   -1.341009
     74          1           0       -3.743825    7.860998   -1.383198
     75          1           0       -2.270780    8.348720   -2.236989
     76          1           0       -2.336005    8.427558   -0.467556
     77          7           0       -0.513489    2.691374   -0.323010
     78          1           0       -1.302922    2.050061   -0.309752
     79          6           0        0.817496    2.141144   -0.352687
     80          1           0        1.446933    2.805683    0.256550
     81          6           0        1.396097    2.237399   -1.773775
     82          6           0        0.805450    0.730177    0.264610
     83          1           0        1.748621    0.207395    0.082527
     84          1           0        0.038526    0.136395   -0.243631
     85          8           0        0.815045    2.740774   -2.717965
     86          6           0        0.511228    0.798629    1.769387
     87          1           0        1.423185    1.086925    2.312043
     88          1           0       -0.226059    1.579018    1.962687
     89          6           0       -0.011671   -0.514740    2.388303
     90          8           0       -0.822235   -0.405862    3.345780
     91          8           0        0.435156   -1.596843    1.908903
     92          7           0        2.695635    1.762525   -1.893523
     93          1           0        3.171278    1.519878   -1.032225
     94          6           0        3.529316    2.248020   -2.979706
     95          1           0        2.860828    2.389339   -3.834802
     96          6           0        4.601596    1.220738   -3.356950
     97          6           0        4.166614    3.603301   -2.635605
     98          1           0        3.350561    4.307029   -2.434830
     99          1           0        4.768545    3.515522   -1.725230
    100          8           0        5.757385    1.562917   -3.631617
    101          6           0        4.987707    4.169818   -3.771280
    102          7           0        6.154969    4.758372   -3.434514
    103          1           0        6.778826    5.063277   -4.169591
    104          1           0        6.562743    4.598767   -2.525222
    105          8           0        4.560274    4.172338   -4.939690
    106          7           0        4.179919   -0.056011   -3.389669
    107          1           0        3.241379   -0.276205   -3.070283
    108          6           0        5.080191   -1.165669   -3.612685
    109          1           0        5.767687   -1.250073   -2.759630
    110          6           0        5.882902   -0.957801   -4.895668
    111          6           0        4.269642   -2.489890   -3.765947
    112          1           0        3.938244   -2.560676   -4.806559
    113          1           0        4.964442   -3.319021   -3.586591
    114          8           0        5.348609   -0.533957   -5.926485
    115          6           0        3.065502   -2.549124   -2.859932
    116          6           0        1.776110   -2.481719   -3.405948
    117          1           0        1.657169   -2.460061   -4.487016
    118          6           0        3.188448   -2.562541   -1.462068
    119          1           0        4.177739   -2.612319   -1.009571
    120          6           0        0.647615   -2.432184   -2.595579
    121          1           0       -0.348590   -2.373597   -3.021793
    122          6           0        2.072851   -2.502066   -0.635543
    123          1           0        2.168785   -2.483776    0.444631
    124          8           0       -0.328510   -2.336619   -0.452795
    125          1           0       -0.075281   -2.113793    0.498379
    126          6           0        0.782312   -2.429104   -1.199457
    127          7           0        7.164984   -1.375899   -4.851179
    128          1           0        7.533786   -1.750937   -3.988126
    129          6           0        7.993067   -1.504370   -6.046274
    130          1           0        7.477975   -2.183889   -6.742247
    131          6           0        9.305947   -2.210461   -5.718294
    132          6           0        8.254674   -0.164367   -6.784149
    133          1           0        7.988198    0.649403   -6.103631
    134          1           0        9.324209   -0.080338   -6.996314
    135          8           0       10.267831   -2.209568   -6.446887
    136          6           0        7.459589   -0.074101   -8.090533
    137          1           0        7.815973   -0.845087   -8.785291
    138          1           0        6.412597   -0.307316   -7.891279
    139          6           0        7.582763    1.261582   -8.830704
    140          1           0        8.554750    1.320567   -9.326834
    141          1           0        6.814146    1.321127   -9.610336
    142          7           0        7.524742    2.477946   -8.000343
    143          1           0        8.261844    3.150513   -8.155441
    144          7           0        5.554285    2.135430   -6.764059
    145          1           0        4.887659    2.578649   -6.133258
    146          1           0        5.654268    1.123961   -6.634277
    147          7           0        6.519007    4.229801   -6.876531
    148          1           0        5.757450    4.519223   -6.245958
    149          1           0        6.870455    4.905402   -7.540983
    150          6           0        6.520622    2.920860   -7.222718
    151          8           0        9.264464   -2.876531   -4.540591
    152          1           0       10.129373   -3.316279   -4.431635
 ---------------------------------------------------------------------

 SCF Done:  E(RB3LYP) =  -3586.98808833     A.U. after    2 cycles

 Alpha  occ. eigenvalues --  -19.28889 -19.23132 -19.22656 -19.21313 -19.20129
 Alpha  occ. eigenvalues --  -19.19407 -19.17361 -19.17302 -19.16846 -19.16323
 Alpha  occ. eigenvalues --  -19.14895 -19.10563 -19.10549 -14.56341 -14.48077
 Alpha  occ. eigenvalues --  -14.46094 -14.45328 -14.45161 -14.44956 -14.44866
 Alpha  occ. eigenvalues --  -14.42949 -14.42318 -14.40275 -14.39344 -14.38643
 Alpha  occ. eigenvalues --  -10.43194 -10.41088 -10.39608 -10.38724 -10.37350
 Alpha  occ. eigenvalues --  -10.37341 -10.36065 -10.34024 -10.33630 -10.33134
 Alpha  occ. eigenvalues --  -10.33115 -10.32690 -10.31844 -10.31708 -10.31036
 Alpha  occ. eigenvalues --  -10.30654 -10.29003 -10.28966 -10.28869 -10.27570
 Alpha  occ. eigenvalues --  -10.27568 -10.27411 -10.27376 -10.27349 -10.27129
 Alpha  occ. eigenvalues --  -10.27114 -10.26722 -10.25856 -10.23699 -10.23450
 Alpha  occ. eigenvalues --  -10.23257 -10.23113 -10.23067 -10.22963 -10.22925
 Alpha  occ. eigenvalues --  -10.22871 -10.22863 -10.22760 -10.22557 -10.22379
 Alpha  occ. eigenvalues --  -10.21746 -10.21529 -10.21439 -10.21321 -10.20604
 Alpha  occ. eigenvalues --  -10.20405 -10.20181 -10.20022 -10.19651 -10.17964
 Alpha  occ. eigenvalues --   -1.19633  -1.15720  -1.12882  -1.12354  -1.11667
 Alpha  occ. eigenvalues --   -1.10781  -1.10584  -1.10222  -1.09394  -1.08873
 Alpha  occ. eigenvalues --   -1.07972  -1.06474  -1.06320  -1.03592  -1.02009
 Alpha  occ. eigenvalues --   -1.01774  -1.01457  -1.00462  -0.99774  -0.99016
 Alpha  occ. eigenvalues --   -0.98566  -0.96940  -0.96800  -0.95972  -0.94919
 Alpha  occ. eigenvalues --   -0.92442  -0.89722  -0.89395  -0.88947  -0.86210
 Alpha  occ. eigenvalues --   -0.86121  -0.85181  -0.84549  -0.83459  -0.83089
 Alpha  occ. eigenvalues --   -0.82664  -0.82267  -0.79013  -0.78938  -0.78805
 Alpha  occ. eigenvalues --   -0.78394  -0.78075  -0.77915  -0.77845  -0.76374
 Alpha  occ. eigenvalues --   -0.75947  -0.74454  -0.74121  -0.73749  -0.72051
 Alpha  occ. eigenvalues --   -0.71101  -0.70988  -0.70787  -0.70567  -0.69966
 Alpha  occ. eigenvalues --   -0.68941  -0.68585  -0.68420  -0.68020  -0.67663
 Alpha  occ. eigenvalues --   -0.67232  -0.66791  -0.66016  -0.65621  -0.65343
 Alpha  occ. eigenvalues --   -0.65165  -0.64582  -0.64543  -0.64465  -0.63926
 Alpha  occ. eigenvalues --   -0.62753  -0.62623  -0.62496  -0.62015  -0.61795
 Alpha  occ. eigenvalues --   -0.61684  -0.61272  -0.60875  -0.60716  -0.60186
 Alpha  occ. eigenvalues --   -0.59726  -0.59658  -0.58726  -0.58138  -0.57826
 Alpha  occ. eigenvalues --   -0.57279  -0.56936  -0.56677  -0.56216  -0.56160
 Alpha  occ. eigenvalues --   -0.55766  -0.55500  -0.55306  -0.55222  -0.54904
 Alpha  occ. eigenvalues --   -0.54416  -0.54206  -0.53685  -0.53143  -0.53018
 Alpha  occ. eigenvalues --   -0.52733  -0.52513  -0.52324  -0.52166  -0.51746
 Alpha  occ. eigenvalues --   -0.51325  -0.51180  -0.50963  -0.50698  -0.50439
 Alpha  occ. eigenvalues --   -0.50276  -0.49768  -0.49712  -0.49561  -0.49527
 Alpha  occ. eigenvalues --   -0.49368  -0.49203  -0.49178  -0.48939  -0.48750
 Alpha  occ. eigenvalues --   -0.48665  -0.48269  -0.48107  -0.47866  -0.47418
 Alpha  occ. eigenvalues --   -0.47054  -0.46917  -0.46661  -0.46539  -0.46432
 Alpha  occ. eigenvalues --   -0.46187  -0.45968  -0.45866  -0.45604  -0.45565
 Alpha  occ. eigenvalues --   -0.45341  -0.45237  -0.45168  -0.44840  -0.44785
 Alpha  occ. eigenvalues --   -0.44475  -0.44459  -0.44273  -0.44202  -0.44005
 Alpha  occ. eigenvalues --   -0.43805  -0.43698  -0.43516  -0.43363  -0.42902
 Alpha  occ. eigenvalues --   -0.42685  -0.42340  -0.42262  -0.42117  -0.42005
 Alpha  occ. eigenvalues --   -0.41728  -0.41657  -0.41392  -0.40917  -0.40532
 Alpha  occ. eigenvalues --   -0.40133  -0.40095  -0.39899  -0.39704  -0.39403
 Alpha  occ. eigenvalues --   -0.38986  -0.38798  -0.38646  -0.38513  -0.38201
 Alpha  occ. eigenvalues --   -0.38167  -0.38114  -0.37792  -0.36989  -0.36898
 Alpha  occ. eigenvalues --   -0.36826  -0.36516  -0.36368  -0.36331  -0.35835
 Alpha  occ. eigenvalues --   -0.35673  -0.35570  -0.35474  -0.35315  -0.35166
 Alpha  occ. eigenvalues --   -0.34877  -0.34558  -0.34518  -0.34245  -0.33776
 Alpha  occ. eigenvalues --   -0.33316  -0.32702  -0.31955  -0.31740  -0.31164
 Alpha  occ. eigenvalues --   -0.30677  -0.30443  -0.29826  -0.29426  -0.28756
 Alpha  occ. eigenvalues --   -0.28535  -0.28035  -0.27292  -0.26791  -0.24966
 Alpha  occ. eigenvalues --   -0.24466  -0.24325
 Alpha virt. eigenvalues --   -0.08783  -0.08597  -0.08097  -0.07992  -0.07039
 Alpha virt. eigenvalues --   -0.06464  -0.05630  -0.04655  -0.04378  -0.03996
 Alpha virt. eigenvalues --   -0.03780  -0.03774  -0.03269  -0.02867  -0.02416

 Mulliken charges:
               1
     1  N   -0.765488
     2  H    0.408756
     3  H    0.433963
     4  H    0.401882
     5  C   -0.099396
     6  H    0.200185
     7  C    0.653165
     8  C   -0.107366
     9  H    0.166938
    10  O   -0.557495
    11  C   -0.474693
    12  H    0.166003
    13  H    0.178718
    14  H    0.194357
    15  C   -0.469199
    16  H    0.172311
    17  H    0.133728
    18  H    0.195296
    19  N   -0.601262
    20  H    0.377587
    21  C   -0.082486
    22  H    0.198764
    23  C    0.637957
    24  C   -0.074081
    25  H    0.126702
    26  O   -0.585474
    27  C   -0.273093
    28  H    0.169259
    29  H    0.147956
    30  C   -0.479495
    31  H    0.199140
    32  H    0.119562
    33  H    0.147342
    34  C   -0.458407
    35  H    0.171783
    36  H    0.163170
    37  H    0.114304
    38  N   -0.620819
    39  H    0.430028
    40  C   -0.099772
    41  H    0.189042
    42  C    0.643468
    43  C   -0.376939
    44  H    0.207301
    45  H    0.159887
    46  O   -0.549156
    47  C    0.114079
    48  C   -0.180089
    49  H    0.143449
    50  C   -0.196397
    51  H    0.128951
    52  C   -0.109463
    53  H    0.149175
    54  C   -0.127137
    55  H    0.137087
    56  C   -0.139829
    57  H    0.137005
    58  N   -0.609464
    59  H    0.359817
    60  C   -0.061042
    61  H    0.177080
    62  C    0.636251
    63  C   -0.281439
    64  H    0.152815
    65  H    0.135639
    66  O   -0.552534
    67  C   -0.078457
    68  H    0.159105
    69  C   -0.460762
    70  H    0.134930
    71  H    0.163064
    72  H    0.142036
    73  C   -0.445240
    74  H    0.136887
    75  H    0.140904
    76  H    0.139882
    77  N   -0.595311
    78  H    0.378427
    79  C   -0.083791
    80  H    0.171447
    81  C    0.629434
    82  C   -0.307025
    83  H    0.144634
    84  H    0.178057
    85  O   -0.491864
    86  C   -0.361700
    87  H    0.141774
    88  H    0.151915
    89  C    0.621320
    90  O   -0.597242
    91  O   -0.613887
    92  N   -0.631309
    93  H    0.330770
    94  C   -0.065803
    95  H    0.226966
    96  C    0.620897
    97  C   -0.356546
    98  H    0.221267
    99  H    0.147402
   100  O   -0.570500
   101  C    0.665641
   102  N   -0.730790
   103  H    0.347084
   104  H    0.358275
   105  O   -0.577793
   106  N   -0.603440
   107  H    0.377233
   108  C   -0.018300
   109  H    0.151336
   110  C    0.667024
   111  C   -0.382408
   112  H    0.175141
   113  H    0.158371
   114  O   -0.572442
   115  C    0.112280
   116  C   -0.198035
   117  H    0.126485
   118  C   -0.192165
   119  H    0.114287
   120  C   -0.165425
   121  H    0.137727
   122  C   -0.201518
   123  H    0.175735
   124  O   -0.704057
   125  H    0.489881
   126  C    0.365656
   127  N   -0.629184
   128  H    0.364218
   129  C   -0.013361
   130  H    0.206430
   131  C    0.573472
   132  C   -0.283576
   133  H    0.170342
   134  H    0.181064
   135  O   -0.440952
   136  C   -0.328066
   137  H    0.169703
   138  H    0.198441
   139  C   -0.144569
   140  H    0.174505
   141  H    0.187934
   142  N   -0.606376
   143  H    0.353911
   144  N   -0.792721
   145  H    0.402900
   146  H    0.443736
   147  N   -0.802597
   148  H    0.402511
   149  H    0.352027
   150  C    0.761769
   151  O   -0.579330
   152  H    0.432417
 Sum of Mulliken charges =   1.00000

 Dipole moment (field-independent basis, Debye):
    X=              0.9064    Y=             -0.2670    Z=             -5.4447  Tot=              5.5261
 Quadrupole moment (field-independent basis, Debye-Ang):
   XX=              9.7280   YY=           -351.8810   ZZ=           -221.1651
   XY=            144.6883   XZ=           -300.3245   YZ=            -84.4512

 Normal termination of Gaussian 16 at Mon Aug 15 06:25:04 2022.
