 Gaussian 16, Revision C.01,
 Gaussian 16:  ES64L-G16RevC.01  3-Jul-2019

 ----------------------------------------------------------------------
 # B3LYP/6-31G* empiricaldispersion=gd3bj guess=read geom=check nosymm
 integral(ultrafinegrid)
 ----------------------------------------------------------------------

 ------------------------------------------------------
 Candidate Structure: Conf:472 Charge calc in gas phase
 ------------------------------------------------------
 Structure from the checkpoint file:  "conf-472.chk"
 Charge =  1 Multiplicity = 1

                          Input orientation:
 ---------------------------------------------------------------------
 Center     Atomic      Atomic             Coordinates (Angstroms)
 Number     Number       Type             X           Y           Z
 ---------------------------------------------------------------------
      1          7           0      -10.128646    1.735042    7.285354
      2          1           0      -10.942533    1.687093    6.669519
      3          1           0       -9.703121    0.805806    7.335394
      4          1           0      -10.444202    1.995549    8.220548
      5          6           0       -9.110420    2.673730    6.766277
      6          1           0       -9.594633    3.616904    6.486830
      7          6           0       -8.506172    2.048044    5.512751
      8          6           0       -8.032870    2.987130    7.818252
      9          1           0       -7.707064    2.012941    8.208203
     10          8           0       -8.230742    0.851384    5.460112
     11          6           0       -6.820110    3.719649    7.247318
     12          1           0       -7.115160    4.682818    6.816051
     13          1           0       -6.108067    3.916753    8.056022
     14          1           0       -6.285557    3.147197    6.481646
     15          6           0       -8.606949    3.807794    8.971312
     16          1           0       -8.931989    4.783024    8.601377
     17          1           0       -9.460059    3.334040    9.458314
     18          1           0       -7.843249    3.972699    9.734013
     19          7           0       -8.326341    2.890300    4.463987
     20          1           0       -8.293928    3.875185    4.666845
     21          6           0       -7.569752    2.465065    3.298877
     22          1           0       -7.862269    1.434545    3.103924
     23          6           0       -6.075490    2.508167    3.598642
     24          6           0       -7.933706    3.326428    2.065941
     25          1           0       -8.982816    3.090946    1.858743
     26          8           0       -5.549153    3.511029    4.090091
     27          6           0       -7.106922    2.946285    0.832233
     28          1           0       -6.042391    3.061200    1.078100
     29          1           0       -7.321550    3.683803    0.053410
     30          6           0       -7.825507    4.827220    2.325795
     31          1           0       -6.804379    5.097484    2.595481
     32          1           0       -8.495769    5.160321    3.119230
     33          1           0       -8.099728    5.374121    1.421151
     34          6           0       -7.395528    1.559746    0.270452
     35          1           0       -6.747060    1.342020   -0.581279
     36          1           0       -7.237791    0.765257    1.005482
     37          1           0       -8.431421    1.488614   -0.071839
     38          7           0       -5.382124    1.396264    3.247742
     39          1           0       -5.852271    0.662442    2.743820
     40          6           0       -3.939380    1.377259    3.172649
     41          1           0       -3.598539    2.394659    3.362038
     42          6           0       -3.558824    0.916274    1.761121
     43          6           0       -3.342950    0.432533    4.222883
     44          1           0       -2.256556    0.394070    4.094876
     45          1           0       -3.727506   -0.571542    4.028843
     46          8           0       -4.238704    0.086430    1.169204
     47          6           0       -3.675539    0.860019    5.631112
     48          6           0       -4.926827    0.556583    6.183087
     49          1           0       -5.668157    0.044107    5.582547
     50          6           0       -2.761852    1.576304    6.406509
     51          1           0       -1.788977    1.822126    5.997927
     52          6           0       -5.219717    0.905797    7.496082
     53          1           0       -6.195260    0.668095    7.901900
     54          6           0       -3.077329    1.968414    7.707553
     55          1           0       -2.353584    2.527347    8.288198
     56          6           0       -4.310192    1.626988    8.255285
     57          1           0       -4.567484    1.927068    9.265399
     58          7           0       -2.426452    1.465656    1.250599
     59          1           0       -1.766202    1.901062    1.878311
     60          6           0       -1.804930    0.954957    0.049627
     61          1           0       -2.266890    0.001015   -0.207127
     62          6           0       -0.326560    0.740802    0.386406
     63          6           0       -1.927841    1.907871   -1.136855
     64          1           0       -1.351358    1.491869   -1.963538
     65          1           0       -1.451103    2.854039   -0.867101
     66          8           0        0.189645    1.243493    1.367318
     67          6           0       -3.349480    2.198422   -1.623482
     68          1           0       -3.918590    2.609222   -0.784023
     69          6           0       -3.290140    3.258489   -2.719798
     70          1           0       -2.677266    2.902607   -3.553276
     71          1           0       -2.850223    4.185049   -2.344898
     72          1           0       -4.285463    3.488700   -3.106203
     73          6           0       -4.068675    0.951283   -2.124242
     74          1           0       -3.551222    0.539032   -2.994498
     75          1           0       -5.089797    1.200196   -2.429929
     76          1           0       -4.128593    0.174215   -1.362804
     77          7           0        0.370640    0.012730   -0.525374
     78          1           0       -0.139359   -0.492059   -1.227272
     79          6           0        1.755334   -0.361718   -0.249179
     80          1           0        2.224957    0.558137    0.122497
     81          6           0        2.417030   -0.778142   -1.563869
     82          6           0        1.881235   -1.426011    0.840613
     83          1           0        1.554242   -2.396423    0.462099
     84          1           0        1.198778   -1.138637    1.644749
     85          8           0        2.916264   -1.889674   -1.732895
     86          6           0        3.306038   -1.533848    1.381106
     87          1           0        4.002419   -1.781795    0.567805
     88          1           0        3.633005   -0.609197    1.854322
     89          6           0        3.389928   -2.702795    2.410857
     90          8           0        3.903789   -2.427194    3.510965
     91          8           0        2.958793   -3.786787    1.986254
     92          7           0        2.425264    0.169307   -2.534635
     93          1           0        1.743198    0.913002   -2.486938
     94          6           0        2.967748   -0.115087   -3.859465
     95          1           0        2.670951   -1.135227   -4.124510
     96          6           0        4.503479   -0.027889   -3.805227
     97          6           0        2.433309    0.879125   -4.883386
     98          1           0        2.779206    1.879880   -4.633611
     99          1           0        2.822611    0.637189   -5.871271
    100          8           0        5.113754    0.973762   -4.174471
    101          6           0        0.922547    0.898915   -4.885226
    102          7           0        0.319047    0.497807   -6.027285
    103          1           0       -0.682239    0.428399   -6.021291
    104          1           0        0.838831    0.054025   -6.760541
    105          8           0        0.289053    1.292316   -3.916511
    106          7           0        5.134388   -1.118003   -3.312935
    107          1           0        4.555795   -1.815452   -2.859490
    108          6           0        6.544533   -1.051499   -2.941017
    109          1           0        6.735401   -0.039061   -2.564813
    110          6           0        7.390317   -1.297214   -4.194421
    111          6           0        6.831795   -2.082670   -1.846285
    112          1           0        5.992773   -2.047443   -1.143557
    113          1           0        6.841556   -3.072071   -2.305830
    114          8           0        7.826786   -2.401673   -4.499813
    115          6           0        8.103840   -1.824483   -1.084301
    116          6           0        9.346974   -2.240257   -1.568929
    117          1           0        9.397066   -2.768711   -2.513673
    118          6           0        8.071226   -1.142240    0.132076
    119          1           0        7.119482   -0.818951    0.534899
    120          6           0       10.520402   -1.976516   -0.863478
    121          1           0       11.482192   -2.300996   -1.240030
    122          6           0        9.234785   -0.869523    0.845516
    123          1           0        9.179896   -0.334915    1.787999
    124          8           0       11.643672   -1.058150    0.990977
    125          1           0       11.468902   -0.579965    1.805285
    126          6           0       10.462749   -1.289394    0.343714
    127          7           0        7.609713   -0.198663   -4.955114
    128          1           0        7.057822    0.634868   -4.788972
    129          6           0        8.339970   -0.330062   -6.190531
    130          1           0        9.020298   -1.173296   -6.066082
    131          6           0        9.198218    0.877494   -6.501607
    132          6           0        7.444584   -0.648870   -7.398310
    133          1           0        8.113463   -0.803378   -8.249584
    134          1           0        6.951432   -1.602270   -7.199965
    135          8           0       10.043786    0.883573   -7.358824
    136          6           0        6.418445    0.421745   -7.740752
    137          1           0        5.674305    0.505057   -6.950334
    138          1           0        6.913192    1.391978   -7.824306
    139          6           0        5.715158    0.109747   -9.050777
    140          1           0        6.459114   -0.028660   -9.845562
    141          1           0        5.163429   -0.828248   -8.949939
    142          7           0        4.782866    1.199619   -9.395915
    143          1           0        5.093433    2.118560   -9.116815
    144          7           0        4.053699    0.094649  -11.324934
    145          1           0        3.315428   -0.012166  -12.001181
    146          1           0        4.450452   -0.756385  -10.964807
    147          7           0        3.410019    2.311143  -10.895564
    148          1           0        2.710566    2.225049  -11.616494
    149          1           0        3.168829    2.954049  -10.154108
    150          6           0        4.070514    1.184645  -10.536488
    151          8           0        8.910163    1.957721   -5.748613
    152          1           0        9.510154    2.659839   -6.031866
 ---------------------------------------------------------------------

 SCF Done:  E(RB3LYP) =  -3586.79569413     A.U. after   13 cycles

 Alpha  occ. eigenvalues --  -19.25935 -19.25284 -19.19835 -19.19452 -19.19013
 Alpha  occ. eigenvalues --  -19.18672 -19.17731 -19.17692 -19.16110 -19.16084
 Alpha  occ. eigenvalues --  -19.15542 -19.00771 -19.00310 -14.63025 -14.51863
 Alpha  occ. eigenvalues --  -14.51376 -14.51086 -14.48247 -14.44272 -14.43233
 Alpha  occ. eigenvalues --  -14.40988 -14.40520 -14.40349 -14.40020 -14.39958
 Alpha  occ. eigenvalues --  -10.46272 -10.42336 -10.40317 -10.37988 -10.37024
 Alpha  occ. eigenvalues --  -10.36303 -10.34945 -10.34521 -10.34222 -10.33290
 Alpha  occ. eigenvalues --  -10.32733 -10.32718 -10.32445 -10.32229 -10.30389
 Alpha  occ. eigenvalues --  -10.30184 -10.29405 -10.29402 -10.28726 -10.27851
 Alpha  occ. eigenvalues --  -10.27603 -10.27467 -10.27296 -10.26722 -10.26606
 Alpha  occ. eigenvalues --  -10.25605 -10.25405 -10.25190 -10.25064 -10.24958
 Alpha  occ. eigenvalues --  -10.24880 -10.24776 -10.24554 -10.24312 -10.24182
 Alpha  occ. eigenvalues --  -10.24061 -10.23973 -10.23198 -10.22632 -10.21741
 Alpha  occ. eigenvalues --  -10.21328 -10.20802 -10.19886 -10.19753 -10.19625
 Alpha  occ. eigenvalues --  -10.19541 -10.19158 -10.18581 -10.16262 -10.12741
 Alpha  occ. eigenvalues --   -1.19202  -1.17202  -1.16141  -1.16115  -1.11837
 Alpha  occ. eigenvalues --   -1.11084  -1.09847  -1.09798  -1.08604  -1.07974
 Alpha  occ. eigenvalues --   -1.07944  -1.07714  -1.07006  -1.05518  -1.05005
 Alpha  occ. eigenvalues --   -1.04811  -1.00039  -0.99349  -0.98081  -0.97949
 Alpha  occ. eigenvalues --   -0.97666  -0.97214  -0.96336  -0.95540  -0.94155
 Alpha  occ. eigenvalues --   -0.91353  -0.90294  -0.90268  -0.86857  -0.86560
 Alpha  occ. eigenvalues --   -0.86416  -0.85596  -0.85498  -0.85178  -0.84157
 Alpha  occ. eigenvalues --   -0.81880  -0.81389  -0.81227  -0.80436  -0.80103
 Alpha  occ. eigenvalues --   -0.79926  -0.78921  -0.78776  -0.77469  -0.76927
 Alpha  occ. eigenvalues --   -0.76799  -0.76273  -0.75955  -0.75533  -0.73912
 Alpha  occ. eigenvalues --   -0.73481  -0.72846  -0.72522  -0.71733  -0.71146
 Alpha  occ. eigenvalues --   -0.70657  -0.70141  -0.69924  -0.69564  -0.68964
 Alpha  occ. eigenvalues --   -0.68572  -0.67524  -0.67334  -0.66780  -0.66205
 Alpha  occ. eigenvalues --   -0.65495  -0.65160  -0.64809  -0.64592  -0.64181
 Alpha  occ. eigenvalues --   -0.64096  -0.63825  -0.63405  -0.63361  -0.62925
 Alpha  occ. eigenvalues --   -0.62611  -0.62510  -0.62002  -0.61551  -0.60642
 Alpha  occ. eigenvalues --   -0.60207  -0.59851  -0.59220  -0.58877  -0.58545
 Alpha  occ. eigenvalues --   -0.58242  -0.58161  -0.57659  -0.57318  -0.56843
 Alpha  occ. eigenvalues --   -0.56443  -0.56064  -0.55926  -0.55318  -0.55309
 Alpha  occ. eigenvalues --   -0.54815  -0.54490  -0.54147  -0.54101  -0.53492
 Alpha  occ. eigenvalues --   -0.53289  -0.53185  -0.52981  -0.52523  -0.52211
 Alpha  occ. eigenvalues --   -0.51763  -0.51529  -0.51183  -0.50712  -0.50611
 Alpha  occ. eigenvalues --   -0.50394  -0.50159  -0.50118  -0.49752  -0.49454
 Alpha  occ. eigenvalues --   -0.49417  -0.49330  -0.49181  -0.49157  -0.48870
 Alpha  occ. eigenvalues --   -0.48838  -0.48441  -0.48275  -0.47830  -0.47672
 Alpha  occ. eigenvalues --   -0.47469  -0.47317  -0.47124  -0.47046  -0.46874
 Alpha  occ. eigenvalues --   -0.46452  -0.46288  -0.46067  -0.45686  -0.45626
 Alpha  occ. eigenvalues --   -0.45392  -0.45266  -0.45228  -0.45158  -0.44939
 Alpha  occ. eigenvalues --   -0.44496  -0.44382  -0.43940  -0.43867  -0.43694
 Alpha  occ. eigenvalues --   -0.43370  -0.43286  -0.43203  -0.43070  -0.42754
 Alpha  occ. eigenvalues --   -0.42749  -0.42580  -0.42445  -0.42280  -0.42055
 Alpha  occ. eigenvalues --   -0.41793  -0.41440  -0.41018  -0.41004  -0.40879
 Alpha  occ. eigenvalues --   -0.40864  -0.40726  -0.40567  -0.40357  -0.40039
 Alpha  occ. eigenvalues --   -0.39762  -0.39559  -0.39531  -0.39294  -0.39267
 Alpha  occ. eigenvalues --   -0.38446  -0.38168  -0.37914  -0.37861  -0.37286
 Alpha  occ. eigenvalues --   -0.36950  -0.36880  -0.36483  -0.35541  -0.34788
 Alpha  occ. eigenvalues --   -0.34548  -0.34073  -0.33801  -0.33624  -0.33546
 Alpha  occ. eigenvalues --   -0.33508  -0.32977  -0.32687  -0.32666  -0.32030
 Alpha  occ. eigenvalues --   -0.31510  -0.31373  -0.30549  -0.30429  -0.30175
 Alpha  occ. eigenvalues --   -0.29892  -0.29715  -0.29604  -0.29226  -0.28428
 Alpha  occ. eigenvalues --   -0.28100  -0.27673  -0.25901  -0.22765  -0.16225
 Alpha  occ. eigenvalues --   -0.14676  -0.14039
 Alpha virt. eigenvalues --   -0.13358  -0.13281  -0.11259  -0.08265  -0.07305
 Alpha virt. eigenvalues --   -0.06413  -0.06119  -0.05873  -0.05715  -0.05563
 Alpha virt. eigenvalues --   -0.05256  -0.04371  -0.03920  -0.03810  -0.03394

 Mulliken charges:
               1
     1  N   -0.721294
     2  H    0.430021
     3  H    0.428454
     4  H    0.422023
     5  C   -0.139127
     6  H    0.198168
     7  C    0.636212
     8  C   -0.103603
     9  H    0.158174
    10  O   -0.516106
    11  C   -0.478350
    12  H    0.147318
    13  H    0.185529
    14  H    0.231854
    15  C   -0.464517
    16  H    0.173109
    17  H    0.124182
    18  H    0.203847
    19  N   -0.594819
    20  H    0.355625
    21  C   -0.068784
    22  H    0.176499
    23  C    0.629757
    24  C   -0.088279
    25  H    0.137070
    26  O   -0.544036
    27  C   -0.277151
    28  H    0.162671
    29  H    0.149669
    30  C   -0.476835
    31  H    0.194511
    32  H    0.117668
    33  H    0.164743
    34  C   -0.460443
    35  H    0.181269
    36  H    0.141024
    37  H    0.144744
    38  N   -0.586365
    39  H    0.355810
    40  C   -0.074598
    41  H    0.191622
    42  C    0.621980
    43  C   -0.368718
    44  H    0.184050
    45  H    0.173403
    46  O   -0.536621
    47  C    0.181265
    48  C   -0.175909
    49  H    0.140110
    50  C   -0.175717
    51  H    0.148557
    52  C   -0.143056
    53  H    0.099647
    54  C   -0.127156
    55  H    0.145319
    56  C   -0.131119
    57  H    0.120324
    58  N   -0.596447
    59  H    0.354208
    60  C   -0.089654
    61  H    0.181609
    62  C    0.632831
    63  C   -0.265761
    64  H    0.169730
    65  H    0.138951
    66  O   -0.522954
    67  C   -0.073424
    68  H    0.128195
    69  C   -0.443001
    70  H    0.143053
    71  H    0.142267
    72  H    0.134782
    73  C   -0.467157
    74  H    0.125655
    75  H    0.135993
    76  H    0.182901
    77  N   -0.631484
    78  H    0.330494
    79  C   -0.035047
    80  H    0.183946
    81  C    0.581658
    82  C   -0.248583
    83  H    0.163712
    84  H    0.143324
    85  O   -0.516633
    86  C   -0.362156
    87  H    0.130807
    88  H    0.108758
    89  C    0.547766
    90  O   -0.568359
    91  O   -0.573170
    92  N   -0.608472
    93  H    0.370267
    94  C   -0.042212
    95  H    0.169908
    96  C    0.632608
    97  C   -0.386548
    98  H    0.210835
    99  H    0.130749
   100  O   -0.561058
   101  C    0.600638
   102  N   -0.739792
   103  H    0.351243
   104  H    0.333393
   105  O   -0.505901
   106  N   -0.619121
   107  H    0.390897
   108  C   -0.043270
   109  H    0.175849
   110  C    0.637231
   111  C   -0.416807
   112  H    0.189728
   113  H    0.182806
   114  O   -0.530010
   115  C    0.161411
   116  C   -0.196819
   117  H    0.150797
   118  C   -0.194359
   119  H    0.148920
   120  C   -0.161941
   121  H    0.134746
   122  C   -0.192291
   123  H    0.126345
   124  O   -0.644759
   125  H    0.407704
   126  C    0.351460
   127  N   -0.610446
   128  H    0.375249
   129  C   -0.057637
   130  H    0.224021
   131  C    0.581509
   132  C   -0.283437
   133  H    0.167495
   134  H    0.176596
   135  O   -0.457764
   136  C   -0.320936
   137  H    0.188012
   138  H    0.156442
   139  C   -0.161207
   140  H    0.187773
   141  H    0.174765
   142  N   -0.593830
   143  H    0.362549
   144  N   -0.733862
   145  H    0.369570
   146  H    0.386379
   147  N   -0.735116
   148  H    0.364560
   149  H    0.371497
   150  C    0.727148
   151  O   -0.561728
   152  H    0.417793
 Sum of Mulliken charges =   1.00000

 Dipole moment (field-independent basis, Debye):
    X=            -40.6299    Y=             26.1642    Z=            -20.1861  Tot=             52.3720
 Quadrupole moment (field-independent basis, Debye-Ang):
   XX=            -59.3232   YY=           -450.6051   ZZ=            170.3710
   XY=            -22.3744   XZ=           -420.6062   YZ=             60.9371

 Normal termination of Gaussian 16 at Mon Aug 15 06:32:41 2022.
