 Gaussian 16, Revision C.01,
 Gaussian 16:  ES64L-G16RevC.01  3-Jul-2019

 ----------------------------------------------------------------------
 # B3LYP/6-31G* empiricaldispersion=gd3bj guess=read geom=check nosymm
 integral(ultrafinegrid)
 ----------------------------------------------------------------------

 ------------------------------------------------------
 Candidate Structure: Conf:234 Charge calc in gas phase
 ------------------------------------------------------
 Structure from the checkpoint file:  "conf-234.chk"
 Charge =  1 Multiplicity = 1

                          Input orientation:
 ---------------------------------------------------------------------
 Center     Atomic      Atomic             Coordinates (Angstroms)
 Number     Number       Type             X           Y           Z
 ---------------------------------------------------------------------
      1          7           0       -3.408590   -1.002025    4.699647
      2          1           0       -3.411931   -1.650383    5.486788
      3          1           0       -4.055994   -1.336177    3.955056
      4          1           0       -2.417676   -1.015083    4.239669
      5          6           0       -3.918860    0.367529    5.058224
      6          1           0       -4.350175    0.317372    6.064649
      7          6           0       -5.063865    0.612904    4.047410
      8          6           0       -2.736411    1.367944    5.056262
      9          1           0       -2.227966    1.249778    4.094438
     10          8           0       -5.260627   -0.211481    3.149277
     11          6           0       -3.152731    2.837336    5.198314
     12          1           0       -3.759410    3.007686    6.099141
     13          1           0       -2.251070    3.447207    5.306896
     14          1           0       -3.691396    3.217101    4.326921
     15          6           0       -1.771124    0.989256    6.190146
     16          1           0       -2.251411    1.120599    7.168423
     17          1           0       -1.418074   -0.044613    6.115907
     18          1           0       -0.882915    1.622034    6.147793
     19          7           0       -5.826855    1.703013    4.240169
     20          1           0       -5.539315    2.377482    4.934814
     21          6           0       -6.765682    2.179186    3.211185
     22          1           0       -7.158538    1.280551    2.733576
     23          6           0       -5.909880    2.958766    2.187143
     24          6           0       -7.933633    2.970388    3.827253
     25          1           0       -8.519421    2.231968    4.393674
     26          8           0       -5.693214    4.167510    2.277292
     27          6           0       -8.842585    3.546371    2.723837
     28          1           0       -8.306890    4.353838    2.212434
     29          1           0       -9.705167    4.009088    3.218702
     30          6           0       -7.493907    4.077268    4.797707
     31          1           0       -6.838299    4.793681    4.298710
     32          1           0       -6.978034    3.678318    5.681162
     33          1           0       -8.374224    4.610099    5.171766
     34          6           0       -9.338832    2.519497    1.700587
     35          1           0      -10.078411    2.970235    1.031078
     36          1           0       -8.526322    2.138208    1.071649
     37          1           0       -9.815367    1.661890    2.191612
     38          7           0       -5.347261    2.159692    1.253632
     39          1           0       -5.491138    1.151404    1.276407
     40          6           0       -4.251131    2.570029    0.394304
     41          1           0       -4.578790    3.403521   -0.238510
     42          6           0       -3.967043    1.345860   -0.500476
     43          6           0       -3.045772    3.024590    1.268005
     44          1           0       -2.811272    2.199478    1.941444
     45          1           0       -3.424710    3.861225    1.864040
     46          8           0       -4.534023    0.272396   -0.314902
     47          6           0       -1.781505    3.448893    0.557769
     48          6           0       -0.545590    2.958395    1.003203
     49          1           0       -0.521385    2.276823    1.847945
     50          6           0       -1.792745    4.341802   -0.525765
     51          1           0       -2.733658    4.771478   -0.862770
     52          6           0        0.641938    3.327949    0.370653
     53          1           0        1.585619    2.935533    0.737336
     54          6           0       -0.607776    4.690790   -1.178953
     55          1           0       -0.641763    5.374840   -2.022778
     56          6           0        0.615267    4.180934   -0.735809
     57          1           0        1.543358    4.446695   -1.233924
     58          7           0       -3.073561    1.544554   -1.502685
     59          1           0       -2.576755    2.425907   -1.541898
     60          6           0       -2.635750    0.479506   -2.391220
     61          1           0       -3.360102   -0.330271   -2.267962
     62          6           0       -1.269631   -0.103961   -1.987710
     63          6           0       -2.615841    0.946383   -3.850674
     64          1           0       -2.270074    0.103489   -4.457867
     65          1           0       -1.855813    1.735943   -3.958836
     66          8           0       -0.598799   -0.771520   -2.769928
     67          6           0       -3.965842    1.465054   -4.369970
     68          1           0       -4.239999    2.347945   -3.775031
     69          6           0       -3.824064    1.904090   -5.832384
     70          1           0       -3.569399    1.050151   -6.472703
     71          1           0       -3.035885    2.657957   -5.950521
     72          1           0       -4.759034    2.334072   -6.207670
     73          6           0       -5.085312    0.427673   -4.213217
     74          1           0       -4.822854   -0.509555   -4.720752
     75          1           0       -6.016167    0.796103   -4.658093
     76          1           0       -5.291040    0.198190   -3.162569
     77          7           0       -0.861089    0.214543   -0.727885
     78          1           0       -1.554693    0.533153   -0.055710
     79          6           0        0.277492   -0.432443   -0.093126
     80          1           0        0.452800    0.138283    0.826082
     81          6           0        1.557201   -0.241645   -0.893784
     82          6           0        0.010095   -1.889553    0.297054
     83          1           0        0.847625   -2.239225    0.905272
     84          1           0       -0.015425   -2.508982   -0.603665
     85          8           0        2.515804   -1.012835   -0.825811
     86          6           0       -1.326548   -2.043027    1.057968
     87          1           0       -2.158757   -1.937497    0.355314
     88          1           0       -1.369130   -3.042494    1.498868
     89          6           0       -1.533977   -0.999900    2.157058
     90          8           0       -2.031314    0.107538    1.868260
     91          8           0       -1.171764   -1.321615    3.361325
     92          7           0        1.604861    0.916352   -1.603046
     93          1           0        0.822258    1.554934   -1.543384
     94          6           0        2.755701    1.247335   -2.412150
     95          1           0        3.203929    0.298114   -2.720371
     96          6           0        3.766101    1.986748   -1.528830
     97          6           0        2.345666    2.050515   -3.644717
     98          1           0        1.459556    1.579367   -4.081056
     99          1           0        2.081084    3.071333   -3.346328
    100          8           0        3.870913    3.230034   -1.551571
    101          6           0        3.488594    2.128004   -4.643967
    102          7           0        3.147001    1.978775   -5.943556
    103          1           0        3.879659    1.976801   -6.640730
    104          1           0        2.217906    1.704464   -6.226558
    105          8           0        4.656649    2.324250   -4.294822
    106          7           0        4.445507    1.183166   -0.707720
    107          1           0        4.201064    0.191744   -0.723421
    108          6           0        5.455912    1.647784    0.225786
    109          1           0        5.231420    2.693035    0.454849
    110          6           0        6.825434    1.513111   -0.451134
    111          6           0        5.426924    0.812359    1.520794
    112          1           0        5.725081   -0.210630    1.268200
    113          1           0        6.204073    1.210530    2.185737
    114          8           0        7.188209    0.450436   -0.936271
    115          6           0        4.072592    0.821486    2.188615
    116          6           0        3.541476    1.999389    2.733243
    117          1           0        4.125511    2.917615    2.704445
    118          6           0        3.301629   -0.342216    2.262915
    119          1           0        3.682341   -1.266775    1.839207
    120          6           0        2.279182    2.023623    3.316012
    121          1           0        1.865663    2.938450    3.728196
    122          6           0        2.043208   -0.341793    2.862383
    123          1           0        1.461272   -1.254996    2.933363
    124          8           0        0.284748    0.919068    3.939115
    125          1           0       -0.208483    0.066458    3.801893
    126          6           0        1.516273    0.848239    3.380164
    127          7           0        7.584564    2.647658   -0.487366
    128          1           0        7.255816    3.469014    0.001495
    129          6           0        8.959948    2.609401   -0.955192
    130          1           0        9.182849    1.542239   -1.082669
    131          6           0        9.929127    3.142596    0.095023
    132          6           0        9.170412    3.322730   -2.299937
    133          1           0        9.011216    4.396492   -2.147562
    134          1           0       10.226405    3.221762   -2.561079
    135          8           0       10.982170    3.679621   -0.159863
    136          6           0        8.267914    2.781297   -3.432805
    137          1           0        8.886604    2.407686   -4.256357
    138          1           0        7.678311    1.926968   -3.084818
    139          6           0        7.308511    3.817238   -4.030183
    140          1           0        7.854447    4.683242   -4.419298
    141          1           0        6.752716    3.381897   -4.860971
    142          7           0        6.288313    4.255569   -3.068108
    143          1           0        5.482236    3.627196   -2.987897
    144          7           0        7.219996    6.304057   -2.427093
    145          1           0        7.477331    6.891131   -1.647324
    146          1           0        7.847323    6.302278   -3.216068
    147          7           0        5.560622    5.320214   -1.146762
    148          1           0        5.289669    6.229219   -0.794219
    149          1           0        4.862966    4.563323   -1.074134
    150          6           0        6.358568    5.279980   -2.234575
    151          8           0        9.486830    2.935086    1.356301
    152          1           0       10.193452    3.254954    1.949843
 ---------------------------------------------------------------------

 SCF Done:  E(RB3LYP) =  -3587.05745105     A.U. after    1 cycles

 Alpha  occ. eigenvalues --  -19.28329 -19.22550 -19.22265 -19.21786 -19.21708
 Alpha  occ. eigenvalues --  -19.21640 -19.20059 -19.18856 -19.18248 -19.17746
 Alpha  occ. eigenvalues --  -19.17620 -19.17402 -19.17044 -14.50325 -14.49985
 Alpha  occ. eigenvalues --  -14.48528 -14.47953 -14.45657 -14.45443 -14.45282
 Alpha  occ. eigenvalues --  -14.45033 -14.43192 -14.42429 -14.41491 -14.41177
 Alpha  occ. eigenvalues --  -10.45407 -10.40687 -10.39251 -10.38572 -10.38477
 Alpha  occ. eigenvalues --  -10.37251 -10.35798 -10.35366 -10.34784 -10.34735
 Alpha  occ. eigenvalues --  -10.34329 -10.34274 -10.33103 -10.32618 -10.32189
 Alpha  occ. eigenvalues --  -10.32179 -10.30467 -10.30063 -10.29971 -10.29092
 Alpha  occ. eigenvalues --  -10.29024 -10.28900 -10.28016 -10.28013 -10.27881
 Alpha  occ. eigenvalues --  -10.26941 -10.26660 -10.26419 -10.25923 -10.25913
 Alpha  occ. eigenvalues --  -10.25686 -10.25648 -10.25495 -10.25447 -10.25311
 Alpha  occ. eigenvalues --  -10.25045 -10.24963 -10.24915 -10.24739 -10.24473
 Alpha  occ. eigenvalues --  -10.24350 -10.24258 -10.24235 -10.24135 -10.23830
 Alpha  occ. eigenvalues --  -10.23207 -10.23001 -10.22550 -10.22468 -10.21961
 Alpha  occ. eigenvalues --   -1.19223  -1.14230  -1.13993  -1.13567  -1.13026
 Alpha  occ. eigenvalues --   -1.12217  -1.10967  -1.10815  -1.10561  -1.10211
 Alpha  occ. eigenvalues --   -1.09776  -1.09373  -1.09073  -1.05673  -1.03357
 Alpha  occ. eigenvalues --   -1.02365  -1.01874  -1.01832  -1.01826  -1.01151
 Alpha  occ. eigenvalues --   -1.00587  -1.00324  -0.99740  -0.98405  -0.97709
 Alpha  occ. eigenvalues --   -0.92483  -0.91534  -0.89482  -0.89433  -0.87844
 Alpha  occ. eigenvalues --   -0.87312  -0.86830  -0.86392  -0.85178  -0.84712
 Alpha  occ. eigenvalues --   -0.84616  -0.81750  -0.81340  -0.81125  -0.80753
 Alpha  occ. eigenvalues --   -0.80487  -0.79537  -0.79032  -0.78424  -0.78230
 Alpha  occ. eigenvalues --   -0.76723  -0.75957  -0.75853  -0.75591  -0.73255
 Alpha  occ. eigenvalues --   -0.72860  -0.72811  -0.71466  -0.71229  -0.70848
 Alpha  occ. eigenvalues --   -0.70095  -0.69050  -0.68673  -0.68495  -0.68079
 Alpha  occ. eigenvalues --   -0.67813  -0.67669  -0.67540  -0.67410  -0.67022
 Alpha  occ. eigenvalues --   -0.66779  -0.66542  -0.66350  -0.65927  -0.65479
 Alpha  occ. eigenvalues --   -0.65035  -0.64397  -0.63414  -0.63193  -0.62926
 Alpha  occ. eigenvalues --   -0.62882  -0.62485  -0.62146  -0.62032  -0.61604
 Alpha  occ. eigenvalues --   -0.60925  -0.60452  -0.60114  -0.59709  -0.59263
 Alpha  occ. eigenvalues --   -0.58698  -0.58259  -0.58153  -0.57934  -0.57136
 Alpha  occ. eigenvalues --   -0.56882  -0.56721  -0.56427  -0.56313  -0.55910
 Alpha  occ. eigenvalues --   -0.55052  -0.54898  -0.54739  -0.54423  -0.54048
 Alpha  occ. eigenvalues --   -0.53595  -0.53570  -0.53323  -0.53262  -0.52902
 Alpha  occ. eigenvalues --   -0.52519  -0.52341  -0.52200  -0.52154  -0.51889
 Alpha  occ. eigenvalues --   -0.51781  -0.51767  -0.51368  -0.50927  -0.50674
 Alpha  occ. eigenvalues --   -0.50570  -0.50323  -0.50227  -0.49959  -0.49796
 Alpha  occ. eigenvalues --   -0.49575  -0.49458  -0.49245  -0.49145  -0.48934
 Alpha  occ. eigenvalues --   -0.48846  -0.48641  -0.48371  -0.48139  -0.47992
 Alpha  occ. eigenvalues --   -0.47812  -0.47700  -0.47567  -0.47482  -0.47335
 Alpha  occ. eigenvalues --   -0.47178  -0.46999  -0.46967  -0.46441  -0.46419
 Alpha  occ. eigenvalues --   -0.46279  -0.46179  -0.45840  -0.45683  -0.45404
 Alpha  occ. eigenvalues --   -0.45302  -0.45180  -0.45131  -0.44894  -0.44615
 Alpha  occ. eigenvalues --   -0.44453  -0.44270  -0.43892  -0.43690  -0.43513
 Alpha  occ. eigenvalues --   -0.43410  -0.43029  -0.42692  -0.42563  -0.42394
 Alpha  occ. eigenvalues --   -0.42315  -0.42255  -0.41906  -0.41672  -0.41587
 Alpha  occ. eigenvalues --   -0.41308  -0.41108  -0.41042  -0.40730  -0.40478
 Alpha  occ. eigenvalues --   -0.40381  -0.40276  -0.40230  -0.39679  -0.38917
 Alpha  occ. eigenvalues --   -0.38656  -0.38426  -0.38171  -0.38057  -0.37974
 Alpha  occ. eigenvalues --   -0.37929  -0.37726  -0.37582  -0.37283  -0.37125
 Alpha  occ. eigenvalues --   -0.36858  -0.36311  -0.36173  -0.35489  -0.35370
 Alpha  occ. eigenvalues --   -0.34267  -0.33880  -0.33849  -0.33408  -0.33214
 Alpha  occ. eigenvalues --   -0.32648  -0.32503  -0.32185  -0.32050  -0.31960
 Alpha  occ. eigenvalues --   -0.31608  -0.31001  -0.30796  -0.30093  -0.29952
 Alpha  occ. eigenvalues --   -0.29235  -0.27377
 Alpha virt. eigenvalues --   -0.10456  -0.08482  -0.08092  -0.08073  -0.07945
 Alpha virt. eigenvalues --   -0.07343  -0.06943  -0.06708  -0.06197  -0.05737
 Alpha virt. eigenvalues --   -0.04737  -0.04518  -0.04176  -0.03791  -0.03667

 Mulliken charges:
               1
     1  N   -0.810387
     2  H    0.384931
     3  H    0.414530
     4  H    0.462728
     5  C   -0.083952
     6  H    0.183035
     7  C    0.640724
     8  C   -0.115459
     9  H    0.209844
    10  O   -0.533406
    11  C   -0.502941
    12  H    0.143090
    13  H    0.178267
    14  H    0.181725
    15  C   -0.457605
    16  H    0.140706
    17  H    0.145513
    18  H    0.191695
    19  N   -0.612619
    20  H    0.358547
    21  C   -0.077206
    22  H    0.189618
    23  C    0.636515
    24  C   -0.078294
    25  H    0.135315
    26  O   -0.544824
    27  C   -0.269345
    28  H    0.167098
    29  H    0.142293
    30  C   -0.487545
    31  H    0.196220
    32  H    0.121292
    33  H    0.159404
    34  C   -0.462825
    35  H    0.157985
    36  H    0.148686
    37  H    0.147070
    38  N   -0.626595
    39  H    0.391177
    40  C   -0.046766
    41  H    0.177019
    42  C    0.625275
    43  C   -0.403468
    44  H    0.209579
    45  H    0.203920
    46  O   -0.530626
    47  C    0.154033
    48  C   -0.208052
    49  H    0.185430
    50  C   -0.233235
    51  H    0.145037
    52  C   -0.164397
    53  H    0.153123
    54  C   -0.128211
    55  H    0.135719
    56  C   -0.169771
    57  H    0.139374
    58  N   -0.637169
    59  H    0.346353
    60  C   -0.073088
    61  H    0.216669
    62  C    0.606180
    63  C   -0.268460
    64  H    0.170574
    65  H    0.109996
    66  O   -0.536261
    67  C   -0.061896
    68  H    0.120475
    69  C   -0.442467
    70  H    0.145058
    71  H    0.128868
    72  H    0.150856
    73  C   -0.465212
    74  H    0.145409
    75  H    0.148709
    76  H    0.166886
    77  N   -0.668198
    78  H    0.405767
    79  C   -0.070307
    80  H    0.194764
    81  C    0.667008
    82  C   -0.275057
    83  H    0.166197
    84  H    0.181083
    85  O   -0.564467
    86  C   -0.338881
    87  H    0.171995
    88  H    0.157298
    89  C    0.571314
    90  O   -0.542526
    91  O   -0.662576
    92  N   -0.611917
    93  H    0.361073
    94  C   -0.047661
    95  H    0.203508
    96  C    0.681303
    97  C   -0.406947
    98  H    0.184445
    99  H    0.197991
   100  O   -0.612544
   101  C    0.630665
   102  N   -0.735826
   103  H    0.355619
   104  H    0.360658
   105  O   -0.546034
   106  N   -0.575585
   107  H    0.394112
   108  C   -0.073820
   109  H    0.146459
   110  C    0.651522
   111  C   -0.393723
   112  H    0.186491
   113  H    0.168343
   114  O   -0.517692
   115  C    0.178740
   116  C   -0.193371
   117  H    0.111896
   118  C   -0.190264
   119  H    0.150436
   120  C   -0.171907
   121  H    0.137152
   122  C   -0.226258
   123  H    0.161876
   124  O   -0.707772
   125  H    0.465906
   126  C    0.367913
   127  N   -0.612873
   128  H    0.335173
   129  C   -0.069380
   130  H    0.234064
   131  C    0.578478
   132  C   -0.272140
   133  H    0.116492
   134  H    0.191808
   135  O   -0.449548
   136  C   -0.280445
   137  H    0.168440
   138  H    0.199822
   139  C   -0.184265
   140  H    0.147732
   141  H    0.207123
   142  N   -0.607231
   143  H    0.432032
   144  N   -0.747044
   145  H    0.372207
   146  H    0.377078
   147  N   -0.803121
   148  H    0.356227
   149  H    0.431479
   150  C    0.760737
   151  O   -0.565630
   152  H    0.424113
 Sum of Mulliken charges =   1.00000

 Dipole moment (field-independent basis, Debye):
    X=             11.7986    Y=             19.4037    Z=             -0.6746  Tot=             22.7192
 Quadrupole moment (field-independent basis, Debye-Ang):
   XX=           -260.5302   YY=           -344.5086   ZZ=           -312.1100
   XY=            112.7132   XZ=            -87.1451   YZ=            -47.8038

 Normal termination of Gaussian 16 at Mon Aug 15 06:24:29 2022.
