 Gaussian 16, Revision C.01,
 Gaussian 16:  ES64L-G16RevC.01  3-Jul-2019

 ----------------------------------------------------------------------
 # B3LYP/6-31G* empiricaldispersion=gd3bj guess=read geom=check nosymm
 integral(ultrafinegrid)
 ----------------------------------------------------------------------

 ------------------------------------------------------
 Candidate Structure: Conf:746 Charge calc in gas phase
 ------------------------------------------------------
 Structure from the checkpoint file:  "conf-746.chk"
 Charge =  1 Multiplicity = 1

                          Input orientation:
 ---------------------------------------------------------------------
 Center     Atomic      Atomic             Coordinates (Angstroms)
 Number     Number       Type             X           Y           Z
 ---------------------------------------------------------------------
      1          7           0       -7.777813   -3.929293    1.687014
      2          1           0       -7.358143   -4.319241    0.839099
      3          1           0       -7.178358   -4.222626    2.527529
      4          1           0       -8.743892   -4.254153    1.760077
      5          6           0       -7.640513   -2.422963    1.772479
      6          1           0       -7.498945   -2.029243    0.762943
      7          6           0       -6.354459   -2.295413    2.631313
      8          6           0       -8.893931   -1.802986    2.429138
      9          1           0       -8.983650   -2.243822    3.432246
     10          8           0       -6.052307   -3.282912    3.327199
     11          6           0       -8.732184   -0.282380    2.579639
     12          1           0       -8.589399    0.196592    1.603077
     13          1           0       -9.641244    0.136605    3.019850
     14          1           0       -7.893410   -0.004905    3.220583
     15          6           0      -10.163726   -2.115911    1.621379
     16          1           0      -10.088332   -1.719635    0.602100
     17          1           0      -10.398936   -3.186637    1.551011
     18          1           0      -11.028853   -1.647031    2.098237
     19          7           0       -5.681616   -1.166284    2.547564
     20          1           0       -6.026886   -0.358681    2.026977
     21          6           0       -4.471089   -0.867790    3.301872
     22          1           0       -4.576902   -1.318822    4.292970
     23          6           0       -4.473586    0.668169    3.396263
     24          6           0       -3.126678   -1.375714    2.645212
     25          1           0       -2.665969   -0.504552    2.171146
     26          8           0       -5.271798    1.339974    2.738227
     27          6           0       -3.316206   -2.434633    1.541255
     28          1           0       -4.192043   -2.181874    0.926993
     29          1           0       -3.525284   -3.407691    2.005969
     30          6           0       -2.191370   -1.891452    3.748132
     31          1           0       -2.630339   -2.776583    4.227211
     32          1           0       -2.011449   -1.150823    4.537631
     33          1           0       -1.208090   -2.155933    3.340306
     34          6           0       -2.088079   -2.525032    0.626217
     35          1           0       -2.180659   -3.354598   -0.083532
     36          1           0       -1.984606   -1.600094    0.044543
     37          1           0       -1.159779   -2.655162    1.192765
     38          7           0       -3.542252    1.195878    4.221124
     39          1           0       -2.847791    0.556302    4.592746
     40          6           0       -3.069196    2.554258    4.050039
     41          1           0       -3.934319    3.225348    4.057784
     42          6           0       -2.414355    2.694606    2.656022
     43          6           0       -2.121224    2.921271    5.227350
     44          1           0       -2.745615    3.171977    6.090156
     45          1           0       -1.561200    3.826012    4.966066
     46          8           0       -2.328337    1.742819    1.878812
     47          6           0       -1.179526    1.794993    5.597685
     48          6           0       -1.459928    1.000429    6.717542
     49          1           0       -2.312665    1.246836    7.346170
     50          6           0       -0.079492    1.464493    4.793968
     51          1           0        0.146858    2.069549    3.919608
     52          6           0       -0.661546   -0.102466    7.026395
     53          1           0       -0.893351   -0.708780    7.897544
     54          6           0        0.718689    0.360189    5.095744
     55          1           0        1.550371    0.073334    4.458076
     56          6           0        0.422101   -0.426258    6.211106
     57          1           0        1.034823   -1.295902    6.426220
     58          7           0       -1.977100    3.929604    2.316301
     59          1           0       -2.060325    4.687990    2.979168
     60          6           0       -1.581630    4.267879    0.943084
     61          1           0       -2.187409    3.625521    0.294149
     62          6           0       -0.107176    3.903763    0.656431
     63          6           0       -1.872456    5.737056    0.647424
     64          1           0       -1.584297    5.922379   -0.393035
     65          1           0       -1.203544    6.363991    1.250780
     66          8           0        0.697155    4.719301    0.195055
     67          6           0       -3.335659    6.163424    0.864068
     68          1           0       -3.569988    6.080099    1.936297
     69          6           0       -3.505354    7.635421    0.468961
     70          1           0       -3.316961    7.773374   -0.603043
     71          1           0       -2.806863    8.279584    1.015279
     72          1           0       -4.522280    7.985317    0.677382
     73          6           0       -4.326293    5.271327    0.104794
     74          1           0       -4.089242    5.250130   -0.966845
     75          1           0       -5.347561    5.653318    0.210848
     76          1           0       -4.321969    4.240171    0.474701
     77          7           0        0.208222    2.622199    0.939400
     78          1           0       -0.534352    1.971800    1.190070
     79          6           0        1.569662    2.127145    0.801601
     80          1           0        2.226562    2.961274    1.069307
     81          6           0        1.871183    1.775999   -0.657214
     82          6           0        1.855315    0.943798    1.729595
     83          1           0        1.948655    1.341056    2.744911
     84          1           0        2.844326    0.544987    1.488986
     85          8           0        1.697708    0.658036   -1.145663
     86          6           0        0.852884   -0.211270    1.700430
     87          1           0       -0.090323    0.062209    2.190932
     88          1           0        0.607707   -0.482654    0.670339
     89          6           0        1.408928   -1.484252    2.414116
     90          8           0        0.645987   -2.491235    2.399556
     91          8           0        2.555497   -1.391186    2.915542
     92          7           0        2.429287    2.786639   -1.384298
     93          1           0        2.371913    3.732407   -1.018371
     94          6           0        2.879882    2.508293   -2.738162
     95          1           0        2.173300    1.777648   -3.149895
     96          6           0        4.269941    1.832782   -2.695515
     97          6           0        2.907612    3.753304   -3.610160
     98          1           0        1.910651    4.209782   -3.625814
     99          1           0        3.596874    4.498485   -3.204343
    100          8           0        5.299525    2.416160   -3.065083
    101          6           0        3.316732    3.526940   -5.057263
    102          7           0        3.275938    2.273515   -5.560962
    103          1           0        3.589216    2.160765   -6.516149
    104          1           0        3.349402    1.433342   -4.993723
    105          8           0        3.642941    4.502352   -5.758083
    106          7           0        4.248913    0.568486   -2.249073
    107          1           0        3.346969    0.164475   -1.985182
    108          6           0        5.379828   -0.305876   -2.412584
    109          1           0        6.284896    0.235168   -2.113461
    110          6           0        5.548062   -0.619030   -3.918222
    111          6           0        5.226751   -1.557536   -1.510866
    112          1           0        6.050158   -2.249842   -1.730697
    113          1           0        5.373245   -1.227432   -0.478135
    114          8           0        4.771992   -0.212029   -4.785927
    115          6           0        3.887542   -2.254116   -1.620446
    116          6           0        3.052795   -2.359398   -0.496856
    117          1           0        3.359385   -1.949050    0.462592
    118          6           0        3.448923   -2.813541   -2.827159
    119          1           0        4.075477   -2.772142   -3.714204
    120          6           0        1.818620   -3.000635   -0.564228
    121          1           0        1.199912   -3.079988    0.326162
    122          6           0        2.209731   -3.442663   -2.915289
    123          1           0        1.881472   -3.870440   -3.861422
    124          8           0        0.166130   -4.141859   -1.820221
    125          1           0        0.019478   -4.485306   -2.714904
    126          6           0        1.392796   -3.533645   -1.782401
    127          7           0        6.657422   -1.340663   -4.204745
    128          1           0        7.196485   -1.749166   -3.447776
    129          6           0        6.975038   -1.877390   -5.515953
    130          1           0        6.050111   -2.188623   -6.015617
    131          6           0        7.823695   -3.121054   -5.276899
    132          6           0        7.722538   -0.861096   -6.420106
    133          1           0        8.312197   -0.224109   -5.749083
    134          1           0        8.433471   -1.387637   -7.064866
    135          8           0        8.271785   -3.443848   -4.199180
    136          6           0        6.772621   -0.027379   -7.294448
    137          1           0        6.479392   -0.621637   -8.168434
    138          1           0        5.859117    0.199418   -6.736839
    139          6           0        7.403794    1.281456   -7.781112
    140          1           0        8.418927    1.124941   -8.159459
    141          1           0        6.823949    1.698372   -8.606189
    142          7           0        7.477974    2.287198   -6.712395
    143          1           0        8.117009    2.100906   -5.949743
    144          7           0        5.708175    3.657927   -7.395158
    145          1           0        4.862181    4.159898   -7.086870
    146          1           0        5.940297    3.590493   -8.374274
    147          7           0        6.432477    3.698909   -5.201828
    148          1           0        5.736779    4.430626   -5.088982
    149          1           0        6.432158    3.056745   -4.404314
    150          6           0        6.530301    3.201175   -6.443236
    151          8           0        8.028002   -3.806007   -6.414704
    152          1           0        8.582498   -4.578387   -6.191399
 ---------------------------------------------------------------------

 SCF Done:  E(RB3LYP) =  -3586.94126204     A.U. after    1 cycles

 Alpha  occ. eigenvalues --  -19.28727 -19.23689 -19.23290 -19.21080 -19.20662
 Alpha  occ. eigenvalues --  -19.20550 -19.19763 -19.19031 -19.18823 -19.17348
 Alpha  occ. eigenvalues --  -19.16984 -19.05237 -19.05132 -14.57187 -14.48937
 Alpha  occ. eigenvalues --  -14.47584 -14.46105 -14.45917 -14.44432 -14.44327
 Alpha  occ. eigenvalues --  -14.43272 -14.42134 -14.42117 -14.41990 -14.40132
 Alpha  occ. eigenvalues --  -10.44113 -10.41242 -10.40255 -10.38639 -10.38005
 Alpha  occ. eigenvalues --  -10.37146 -10.36103 -10.35694 -10.35586 -10.33934
 Alpha  occ. eigenvalues --  -10.33904 -10.33685 -10.33205 -10.32486 -10.30793
 Alpha  occ. eigenvalues --  -10.30416 -10.30327 -10.29935 -10.29601 -10.29157
 Alpha  occ. eigenvalues --  -10.28894 -10.28283 -10.27879 -10.27849 -10.27445
 Alpha  occ. eigenvalues --  -10.26891 -10.25909 -10.25184 -10.24608 -10.23980
 Alpha  occ. eigenvalues --  -10.23913 -10.23759 -10.23119 -10.22872 -10.22627
 Alpha  occ. eigenvalues --  -10.22574 -10.22468 -10.22423 -10.22351 -10.22346
 Alpha  occ. eigenvalues --  -10.22129 -10.21752 -10.21582 -10.21244 -10.20926
 Alpha  occ. eigenvalues --  -10.19767 -10.19603 -10.19018 -10.17847 -10.16703
 Alpha  occ. eigenvalues --   -1.19826  -1.16398  -1.13175  -1.12435  -1.12210
 Alpha  occ. eigenvalues --   -1.11559  -1.11099  -1.10986  -1.10834  -1.10265
 Alpha  occ. eigenvalues --   -1.09435  -1.08595  -1.08294  -1.03004  -1.02762
 Alpha  occ. eigenvalues --   -1.01454  -1.00182  -0.99726  -0.99594  -0.99471
 Alpha  occ. eigenvalues --   -0.99424  -0.98469  -0.98345  -0.96876  -0.93181
 Alpha  occ. eigenvalues --   -0.90087  -0.89744  -0.89503  -0.88481  -0.87089
 Alpha  occ. eigenvalues --   -0.86486  -0.86410  -0.85643  -0.84329  -0.83342
 Alpha  occ. eigenvalues --   -0.83268  -0.82090  -0.79900  -0.79649  -0.79213
 Alpha  occ. eigenvalues --   -0.78967  -0.77906  -0.77786  -0.77271  -0.77113
 Alpha  occ. eigenvalues --   -0.75480  -0.74862  -0.73943  -0.73512  -0.72784
 Alpha  occ. eigenvalues --   -0.72720  -0.71872  -0.71434  -0.71218  -0.70704
 Alpha  occ. eigenvalues --   -0.70317  -0.69825  -0.69270  -0.68764  -0.68042
 Alpha  occ. eigenvalues --   -0.67639  -0.66980  -0.66879  -0.65983  -0.65551
 Alpha  occ. eigenvalues --   -0.65527  -0.65138  -0.65102  -0.64613  -0.64017
 Alpha  occ. eigenvalues --   -0.63434  -0.63208  -0.62704  -0.62231  -0.62006
 Alpha  occ. eigenvalues --   -0.61868  -0.61800  -0.61692  -0.61234  -0.61150
 Alpha  occ. eigenvalues --   -0.60545  -0.59854  -0.59453  -0.58924  -0.58466
 Alpha  occ. eigenvalues --   -0.58039  -0.57733  -0.56996  -0.56456  -0.56364
 Alpha  occ. eigenvalues --   -0.56248  -0.56145  -0.56053  -0.55773  -0.55477
 Alpha  occ. eigenvalues --   -0.54946  -0.54769  -0.54207  -0.54124  -0.53919
 Alpha  occ. eigenvalues --   -0.53533  -0.53299  -0.52857  -0.52684  -0.52234
 Alpha  occ. eigenvalues --   -0.52122  -0.52053  -0.51821  -0.51299  -0.51232
 Alpha  occ. eigenvalues --   -0.50859  -0.50394  -0.50184  -0.49994  -0.49956
 Alpha  occ. eigenvalues --   -0.49542  -0.49467  -0.49134  -0.49062  -0.48733
 Alpha  occ. eigenvalues --   -0.48482  -0.48364  -0.48262  -0.48013  -0.47956
 Alpha  occ. eigenvalues --   -0.47698  -0.47536  -0.47458  -0.47358  -0.46966
 Alpha  occ. eigenvalues --   -0.46887  -0.46718  -0.46454  -0.46182  -0.45906
 Alpha  occ. eigenvalues --   -0.45704  -0.45520  -0.45265  -0.45164  -0.45059
 Alpha  occ. eigenvalues --   -0.44859  -0.44534  -0.44384  -0.44268  -0.44195
 Alpha  occ. eigenvalues --   -0.44107  -0.44001  -0.43842  -0.43832  -0.43468
 Alpha  occ. eigenvalues --   -0.43203  -0.43092  -0.42967  -0.42757  -0.42610
 Alpha  occ. eigenvalues --   -0.42527  -0.42128  -0.41838  -0.41337  -0.40831
 Alpha  occ. eigenvalues --   -0.40546  -0.40276  -0.39831  -0.39389  -0.38976
 Alpha  occ. eigenvalues --   -0.38539  -0.38389  -0.38328  -0.38153  -0.38086
 Alpha  occ. eigenvalues --   -0.37959  -0.37849  -0.37741  -0.37465  -0.37398
 Alpha  occ. eigenvalues --   -0.37299  -0.36841  -0.36808  -0.36532  -0.36328
 Alpha  occ. eigenvalues --   -0.35976  -0.35709  -0.35603  -0.35297  -0.35001
 Alpha  occ. eigenvalues --   -0.34734  -0.34626  -0.34419  -0.34169  -0.34105
 Alpha  occ. eigenvalues --   -0.33880  -0.33200  -0.33028  -0.32554  -0.32502
 Alpha  occ. eigenvalues --   -0.31759  -0.31618  -0.30974  -0.29784  -0.28568
 Alpha  occ. eigenvalues --   -0.28407  -0.28138  -0.27551  -0.24712  -0.21180
 Alpha  occ. eigenvalues --   -0.19773  -0.19249
 Alpha virt. eigenvalues --   -0.09798  -0.09644  -0.08598  -0.08277  -0.07268
 Alpha virt. eigenvalues --   -0.06298  -0.06078  -0.05577  -0.04734  -0.04341
 Alpha virt. eigenvalues --   -0.04008  -0.03795  -0.03663  -0.03288  -0.02972

 Mulliken charges:
               1
     1  N   -0.761340
     2  H    0.413510
     3  H    0.433440
     4  H    0.402729
     5  C   -0.104006
     6  H    0.201274
     7  C    0.656604
     8  C   -0.106163
     9  H    0.168731
    10  O   -0.552552
    11  C   -0.475496
    12  H    0.163893
    13  H    0.180839
    14  H    0.192695
    15  C   -0.471178
    16  H    0.172228
    17  H    0.136256
    18  H    0.196503
    19  N   -0.598024
    20  H    0.371139
    21  C   -0.065210
    22  H    0.191384
    23  C    0.629199
    24  C   -0.113383
    25  H    0.200523
    26  O   -0.557291
    27  C   -0.252376
    28  H    0.076748
    29  H    0.132433
    30  C   -0.530951
    31  H    0.133880
    32  H    0.140451
    33  H    0.260029
    34  C   -0.489291
    35  H    0.127294
    36  H    0.129689
    37  H    0.244813
    38  N   -0.611501
    39  H    0.378880
    40  C   -0.073620
    41  H    0.187721
    42  C    0.654615
    43  C   -0.371533
    44  H    0.167812
    45  H    0.156315
    46  O   -0.537731
    47  C    0.108351
    48  C   -0.193486
    49  H    0.124263
    50  C   -0.192465
    51  H    0.130689
    52  C   -0.124207
    53  H    0.135414
    54  C   -0.136486
    55  H    0.207164
    56  C   -0.133894
    57  H    0.161042
    58  N   -0.605439
    59  H    0.340193
    60  C   -0.073557
    61  H    0.190982
    62  C    0.628094
    63  C   -0.284079
    64  H    0.160336
    65  H    0.151624
    66  O   -0.554883
    67  C   -0.072058
    68  H    0.110148
    69  C   -0.442131
    70  H    0.145636
    71  H    0.146700
    72  H    0.147727
    73  C   -0.457904
    74  H    0.141908
    75  H    0.148257
    76  H    0.159023
    77  N   -0.630713
    78  H    0.405502
    79  C   -0.061925
    80  H    0.159795
    81  C    0.632953
    82  C   -0.270042
    83  H    0.143865
    84  H    0.160923
    85  O   -0.531726
    86  C   -0.417775
    87  H    0.133113
    88  H    0.174875
    89  C    0.599346
    90  O   -0.587323
    91  O   -0.595729
    92  N   -0.624086
    93  H    0.366760
    94  C   -0.059461
    95  H    0.189751
    96  C    0.630352
    97  C   -0.368939
    98  H    0.205533
    99  H    0.190231
   100  O   -0.590883
   101  C    0.614971
   102  N   -0.750700
   103  H    0.338396
   104  H    0.398380
   105  O   -0.575867
   106  N   -0.607026
   107  H    0.417041
   108  C   -0.064066
   109  H    0.182243
   110  C    0.641087
   111  C   -0.386917
   112  H    0.159119
   113  H    0.188579
   114  O   -0.555115
   115  C    0.124433
   116  C   -0.215242
   117  H    0.185156
   118  C   -0.186457
   119  H    0.106608
   120  C   -0.171567
   121  H    0.223986
   122  C   -0.195004
   123  H    0.105573
   124  O   -0.638577
   125  H    0.399076
   126  C    0.341922
   127  N   -0.624048
   128  H    0.368817
   129  C   -0.022986
   130  H    0.201916
   131  C    0.573460
   132  C   -0.279189
   133  H    0.140065
   134  H    0.180269
   135  O   -0.450110
   136  C   -0.288796
   137  H    0.164977
   138  H    0.196533
   139  C   -0.173650
   140  H    0.187484
   141  H    0.161675
   142  N   -0.581516
   143  H    0.363556
   144  N   -0.778802
   145  H    0.412434
   146  H    0.366081
   147  N   -0.749251
   148  H    0.376991
   149  H    0.400998
   150  C    0.749964
   151  O   -0.560079
   152  H    0.431839
 Sum of Mulliken charges =   1.00000

 Dipole moment (field-independent basis, Debye):
    X=             -9.7538    Y=              1.3582    Z=            -20.5764  Tot=             22.8117
 Quadrupole moment (field-independent basis, Debye-Ang):
   XX=            -52.4493   YY=           -373.2088   ZZ=           -261.3780
   XY=             95.5463   XZ=           -216.0209   YZ=              3.4866

 Normal termination of Gaussian 16 at Mon Aug 15 06:24:06 2022.
