 Gaussian 16, Revision C.01,
 Gaussian 16:  ES64L-G16RevC.01  3-Jul-2019

 ----------------------------------------------------------------------
 # B3LYP/6-31G* empiricaldispersion=gd3bj guess=read geom=check nosymm
 integral(ultrafinegrid)
 ----------------------------------------------------------------------

 ------------------------------------------------------
 Candidate Structure: Conf:549 Charge calc in gas phase
 ------------------------------------------------------
 Structure from the checkpoint file:  "conf-549.chk"
 Charge =  1 Multiplicity = 1

                          Input orientation:
 ---------------------------------------------------------------------
 Center     Atomic      Atomic             Coordinates (Angstroms)
 Number     Number       Type             X           Y           Z
 ---------------------------------------------------------------------
      1          7           0      -11.215662    4.714630    2.053718
      2          1           0      -11.639646    4.272761    1.233453
      3          1           0      -11.204588    3.974978    2.801380
      4          1           0      -11.756467    5.547302    2.297240
      5          6           0       -9.737478    4.982717    1.854110
      6          1           0       -9.573956    5.183658    0.792946
      7          6           0       -9.117427    3.650724    2.334464
      8          6           0       -9.278319    6.184235    2.709022
      9          1           0       -8.187927    6.198586    2.586194
     10          8           0       -9.824350    2.932988    3.059845
     11          6           0       -9.838660    7.502526    2.160295
     12          1           0      -10.927008    7.580647    2.292135
     13          1           0       -9.404506    8.347425    2.702067
     14          1           0       -9.613532    7.632482    1.096602
     15          6           0       -9.587875    6.006195    4.202055
     16          1           0      -10.664003    6.069247    4.408256
     17          1           0       -9.222706    5.053614    4.594012
     18          1           0       -9.112647    6.809732    4.770903
     19          7           0       -7.858645    3.425802    1.995000
     20          1           0       -7.334288    4.037669    1.368753
     21          6           0       -7.075474    2.266911    2.428778
     22          1           0       -7.340671    2.049180    3.465163
     23          6           0       -5.617625    2.735895    2.303105
     24          6           0       -7.385100    1.017245    1.552932
     25          1           0       -8.466030    0.861186    1.674367
     26          8           0       -5.317929    3.548333    1.425856
     27          6           0       -6.669721   -0.245997    2.065895
     28          1           0       -5.582507   -0.122621    2.011781
     29          1           0       -6.910167   -1.055585    1.365995
     30          6           0       -7.078191    1.252980    0.070291
     31          1           0       -6.003397    1.363727   -0.103941
     32          1           0       -7.571921    2.150437   -0.317857
     33          1           0       -7.429963    0.400350   -0.518470
     34          6           0       -7.070908   -0.685517    3.477176
     35          1           0       -6.572930   -1.623425    3.739241
     36          1           0       -6.791535    0.045040    4.247983
     37          1           0       -8.153104   -0.841137    3.558455
     38          7           0       -4.750561    2.232508    3.206214
     39          1           0       -5.055980    1.428519    3.742454
     40          6           0       -3.301261    2.295313    3.004090
     41          1           0       -3.067292    3.258498    2.547713
     42          6           0       -2.896674    1.131177    2.088972
     43          6           0       -2.574434    2.171557    4.357777
     44          1           0       -2.870673    1.226129    4.827143
     45          1           0       -2.922541    2.988016    4.999877
     46          8           0       -3.300332   -0.009085    2.334227
     47          6           0       -1.077346    2.209924    4.166665
     48          6           0       -0.373541    1.025085    3.916507
     49          1           0       -0.907088    0.077478    3.926158
     50          6           0       -0.381204    3.422659    4.160356
     51          1           0       -0.916230    4.348232    4.365732
     52          6           0        0.993449    1.057708    3.653996
     53          1           0        1.529108    0.132492    3.465787
     54          6           0        0.987417    3.451785    3.888097
     55          1           0        1.517055    4.400584    3.882063
     56          6           0        1.685400    2.271426    3.626235
     57          1           0        2.750144    2.293409    3.384255
     58          7           0       -2.082497    1.439355    1.064922
     59          1           0       -1.756051    2.387846    0.927631
     60          6           0       -1.471194    0.426554    0.212889
     61          1           0       -1.449406   -0.502339    0.786693
     62          6           0       -0.065030    0.912407   -0.138812
     63          6           0       -2.273977    0.256260   -1.092247
     64          1           0       -2.403937    1.258374   -1.515473
     65          1           0       -3.268685   -0.127636   -0.829875
     66          8           0        0.083745    2.011659   -0.677714
     67          6           0       -1.607609   -0.638569   -2.151513
     68          1           0       -0.619177   -0.215993   -2.366670
     69          6           0       -1.416194   -2.082695   -1.677517
     70          1           0       -2.378019   -2.548100   -1.428640
     71          1           0       -0.774477   -2.145687   -0.793041
     72          1           0       -0.942691   -2.688448   -2.458853
     73          6           0       -2.413751   -0.592278   -3.454531
     74          1           0       -3.421000   -1.004266   -3.313781
     75          1           0       -1.926979   -1.181441   -4.241664
     76          1           0       -2.511308    0.435820   -3.820045
     77          7           0        0.939560    0.056397    0.142237
     78          1           0        0.729924   -0.816880    0.605020
     79          6           0        2.323493    0.291295   -0.282278
     80          1           0        2.300480    1.278214   -0.751634
     81          6           0        2.625802   -0.754184   -1.368521
     82          6           0        3.342801    0.361790    0.840803
     83          1           0        3.538326   -0.624752    1.276276
     84          1           0        2.921580    1.002541    1.615948
     85          8           0        3.336628   -1.735306   -1.233440
     86          6           0        4.633824    1.033190    0.361687
     87          1           0        5.181031    0.400238   -0.343087
     88          1           0        4.341732    1.964021   -0.156852
     89          6           0        5.539480    1.466956    1.572642
     90          8           0        6.694258    1.005705    1.592641
     91          8           0        4.969415    2.255951    2.374957
     92          7           0        1.974711   -0.452550   -2.537605
     93          1           0        1.650094    0.503508   -2.641453
     94          6           0        2.341029   -1.090620   -3.771964
     95          1           0        2.414368   -2.173412   -3.634155
     96          6           0        3.751779   -0.589427   -4.161281
     97          6           0        1.275539   -0.761945   -4.840673
     98          1           0        1.480280   -1.300940   -5.771694
     99          1           0        0.303262   -1.101594   -4.472655
    100          8           0        4.290645    0.277361   -3.487271
    101          6           0        1.180154    0.744681   -5.078934
    102          7           0        1.527576    1.183211   -6.311090
    103          1           0        1.589737    2.187537   -6.417508
    104          1           0        2.175113    0.655004   -6.881863
    105          8           0        0.798879    1.512228   -4.191518
    106          7           0        4.370197   -1.117521   -5.256409
    107          1           0        3.803056   -1.569956   -5.960153
    108          6           0        5.651716   -0.545092   -5.668134
    109          1           0        6.238273   -0.438320   -4.753904
    110          6           0        5.433448    0.885219   -6.220628
    111          6           0        6.414430   -1.437294   -6.657941
    112          1           0        6.454050   -2.451246   -6.247031
    113          1           0        5.871894   -1.481162   -7.610378
    114          8           0        4.475850    1.158777   -6.946488
    115          6           0        7.796226   -0.862158   -6.871924
    116          6           0        8.055133    0.008213   -7.937765
    117          1           0        7.274872    0.202146   -8.669735
    118          6           0        8.812524   -1.083911   -5.936586
    119          1           0        8.636839   -1.752775   -5.097579
    120          6           0        9.282206    0.649691   -8.066357
    121          1           0        9.484138    1.322941   -8.892456
    122          6           0       10.048237   -0.451061   -6.052602
    123          1           0       10.825775   -0.634963   -5.314766
    124          8           0       11.467420    1.079650   -7.287563
    125          1           0       12.075410    0.829298   -6.575460
    126          6           0       10.284795    0.423180   -7.118339
    127          7           0        6.299906    1.820689   -5.758962
    128          1           0        7.194849    1.531906   -5.379178
    129          6           0        6.116460    3.247228   -5.958099
    130          1           0        5.890138    3.461450   -7.009192
    131          6           0        7.436477    3.915267   -5.612904
    132          6           0        4.950465    3.776539   -5.067684
    133          1           0        4.899096    4.869263   -5.119847
    134          1           0        4.033525    3.374716   -5.513093
    135          8           0        8.436512    3.330790   -5.264970
    136          6           0        5.087794    3.235128   -3.642676
    137          1           0        5.165585    2.156399   -3.719563
    138          1           0        6.017919    3.578254   -3.167266
    139          6           0        3.908109    3.452548   -2.709148
    140          1           0        2.975990    3.087343   -3.152091
    141          1           0        4.042312    2.867067   -1.796215
    142          7           0        3.684196    4.860709   -2.300054
    143          1           0        3.139037    5.444344   -2.918758
    144          7           0        5.359196    4.743871   -0.708559
    145          1           0        5.824536    5.146859    0.093079
    146          1           0        5.282909    3.731137   -0.715366
    147          7           0        4.461828    6.813383   -1.254009
    148          1           0        4.910727    7.186911   -0.423916
    149          1           0        3.697338    7.362331   -1.617341
    150          6           0        4.484384    5.469323   -1.427152
    151          8           0        7.364497    5.256794   -5.736246
    152          1           0        8.255986    5.599929   -5.538325
 ---------------------------------------------------------------------

 SCF Done:  E(RB3LYP) =  -3586.87490466     A.U. after    1 cycles

 Alpha  occ. eigenvalues --  -19.27092 -19.26583 -19.22045 -19.21498 -19.21361
 Alpha  occ. eigenvalues --  -19.18169 -19.18006 -19.17876 -19.17403 -19.15926
 Alpha  occ. eigenvalues --  -19.14862 -19.02321 -19.01834 -14.60287 -14.49450
 Alpha  occ. eigenvalues --  -14.49297 -14.48716 -14.47589 -14.44986 -14.42440
 Alpha  occ. eigenvalues --  -14.42079 -14.41955 -14.41740 -14.40778 -14.38524
 Alpha  occ. eigenvalues --  -10.44879 -10.43380 -10.40705 -10.39412 -10.38265
 Alpha  occ. eigenvalues --  -10.35597 -10.34903 -10.34707 -10.34611 -10.34536
 Alpha  occ. eigenvalues --  -10.33559 -10.33117 -10.31431 -10.31313 -10.31086
 Alpha  occ. eigenvalues --  -10.30759 -10.30650 -10.30317 -10.29419 -10.29388
 Alpha  occ. eigenvalues --  -10.29199 -10.28281 -10.28099 -10.26807 -10.26388
 Alpha  occ. eigenvalues --  -10.25464 -10.25395 -10.25381 -10.25160 -10.25084
 Alpha  occ. eigenvalues --  -10.24862 -10.24721 -10.23895 -10.23802 -10.23697
 Alpha  occ. eigenvalues --  -10.23512 -10.23462 -10.23081 -10.23060 -10.22964
 Alpha  occ. eigenvalues --  -10.22614 -10.22185 -10.21998 -10.21964 -10.21809
 Alpha  occ. eigenvalues --  -10.21707 -10.21020 -10.20867 -10.18446 -10.16251
 Alpha  occ. eigenvalues --   -1.19388  -1.18135  -1.14258  -1.13371  -1.13300
 Alpha  occ. eigenvalues --   -1.10690  -1.10205  -1.09729  -1.09539  -1.09479
 Alpha  occ. eigenvalues --   -1.09084  -1.07866  -1.06591  -1.06045  -1.02870
 Alpha  occ. eigenvalues --   -1.01468  -1.01074  -0.99069  -0.98565  -0.98381
 Alpha  occ. eigenvalues --   -0.97256  -0.96784  -0.96168  -0.95748  -0.95440
 Alpha  occ. eigenvalues --   -0.90620  -0.90316  -0.89344  -0.87559  -0.86938
 Alpha  occ. eigenvalues --   -0.86771  -0.86170  -0.85243  -0.84852  -0.83756
 Alpha  occ. eigenvalues --   -0.82799  -0.82238  -0.82040  -0.81211  -0.79901
 Alpha  occ. eigenvalues --   -0.79382  -0.79104  -0.78147  -0.77642  -0.77196
 Alpha  occ. eigenvalues --   -0.77171  -0.75292  -0.74583  -0.74157  -0.73808
 Alpha  occ. eigenvalues --   -0.72905  -0.72830  -0.71935  -0.71843  -0.71481
 Alpha  occ. eigenvalues --   -0.71136  -0.70991  -0.70251  -0.69593  -0.69457
 Alpha  occ. eigenvalues --   -0.68077  -0.67310  -0.66845  -0.66358  -0.65970
 Alpha  occ. eigenvalues --   -0.65395  -0.65150  -0.64773  -0.64433  -0.63893
 Alpha  occ. eigenvalues --   -0.63722  -0.63349  -0.63235  -0.62701  -0.62537
 Alpha  occ. eigenvalues --   -0.61959  -0.61487  -0.61308  -0.60691  -0.60604
 Alpha  occ. eigenvalues --   -0.60485  -0.59821  -0.59568  -0.59255  -0.58793
 Alpha  occ. eigenvalues --   -0.58446  -0.58246  -0.57703  -0.57329  -0.56698
 Alpha  occ. eigenvalues --   -0.56576  -0.55885  -0.55632  -0.55508  -0.55032
 Alpha  occ. eigenvalues --   -0.54968  -0.54608  -0.54491  -0.53943  -0.53740
 Alpha  occ. eigenvalues --   -0.53654  -0.53080  -0.52959  -0.52779  -0.52484
 Alpha  occ. eigenvalues --   -0.52150  -0.51994  -0.51606  -0.51212  -0.51185
 Alpha  occ. eigenvalues --   -0.50950  -0.50771  -0.50546  -0.50381  -0.50235
 Alpha  occ. eigenvalues --   -0.50078  -0.49641  -0.49269  -0.49162  -0.48885
 Alpha  occ. eigenvalues --   -0.48652  -0.48551  -0.48463  -0.48360  -0.48192
 Alpha  occ. eigenvalues --   -0.48158  -0.47875  -0.47720  -0.47642  -0.47616
 Alpha  occ. eigenvalues --   -0.47046  -0.46748  -0.46629  -0.46374  -0.46143
 Alpha  occ. eigenvalues --   -0.45982  -0.45831  -0.45755  -0.45441  -0.45188
 Alpha  occ. eigenvalues --   -0.45033  -0.44814  -0.44622  -0.44448  -0.44094
 Alpha  occ. eigenvalues --   -0.44039  -0.43961  -0.43794  -0.43602  -0.43556
 Alpha  occ. eigenvalues --   -0.43239  -0.42872  -0.42765  -0.42572  -0.42359
 Alpha  occ. eigenvalues --   -0.42173  -0.41949  -0.41578  -0.41210  -0.41067
 Alpha  occ. eigenvalues --   -0.40994  -0.40901  -0.40819  -0.40500  -0.40130
 Alpha  occ. eigenvalues --   -0.39883  -0.39680  -0.39534  -0.39409  -0.39070
 Alpha  occ. eigenvalues --   -0.38966  -0.38220  -0.38068  -0.37953  -0.37411
 Alpha  occ. eigenvalues --   -0.37304  -0.37260  -0.37114  -0.37095  -0.36751
 Alpha  occ. eigenvalues --   -0.36507  -0.35580  -0.35352  -0.35071  -0.34887
 Alpha  occ. eigenvalues --   -0.34362  -0.33703  -0.33386  -0.32153  -0.32088
 Alpha  occ. eigenvalues --   -0.31692  -0.31582  -0.31410  -0.31151  -0.31090
 Alpha  occ. eigenvalues --   -0.30807  -0.30267  -0.29702  -0.29526  -0.29320
 Alpha  occ. eigenvalues --   -0.28292  -0.27576  -0.26962  -0.26278  -0.18143
 Alpha  occ. eigenvalues --   -0.17099  -0.16126
 Alpha virt. eigenvalues --   -0.12396  -0.11509  -0.08998  -0.07512  -0.06905
 Alpha virt. eigenvalues --   -0.06548  -0.05671  -0.05396  -0.04844  -0.04585
 Alpha virt. eigenvalues --   -0.04485  -0.04434  -0.03739  -0.03592  -0.03445

 Mulliken charges:
               1
     1  N   -0.751257
     2  H    0.416722
     3  H    0.435252
     4  H    0.410933
     5  C   -0.118407
     6  H    0.206032
     7  C    0.671328
     8  C   -0.114881
     9  H    0.190484
    10  O   -0.554452
    11  C   -0.464836
    12  H    0.139810
    13  H    0.200164
    14  H    0.172660
    15  C   -0.480404
    16  H    0.142307
    17  H    0.194456
    18  H    0.196586
    19  N   -0.610653
    20  H    0.369553
    21  C   -0.069750
    22  H    0.185999
    23  C    0.633379
    24  C   -0.079996
    25  H    0.144040
    26  O   -0.547734
    27  C   -0.302975
    28  H    0.196456
    29  H    0.151606
    30  C   -0.460613
    31  H    0.180796
    32  H    0.120597
    33  H    0.162284
    34  C   -0.461345
    35  H    0.176892
    36  H    0.125995
    37  H    0.152841
    38  N   -0.599587
    39  H    0.355777
    40  C   -0.064647
    41  H    0.174243
    42  C    0.645697
    43  C   -0.368665
    44  H    0.163481
    45  H    0.156541
    46  O   -0.558924
    47  C    0.146812
    48  C   -0.187691
    49  H    0.137721
    50  C   -0.187247
    51  H    0.109189
    52  C   -0.145413
    53  H    0.143945
    54  C   -0.144095
    55  H    0.127226
    56  C   -0.148448
    57  H    0.229529
    58  N   -0.589698
    59  H    0.352027
    60  C   -0.041669
    61  H    0.168186
    62  C    0.622359
    63  C   -0.250281
    64  H    0.150787
    65  H    0.137109
    66  O   -0.559728
    67  C   -0.104924
    68  H    0.171981
    69  C   -0.441117
    70  H    0.142035
    71  H    0.134127
    72  H    0.141713
    73  C   -0.449298
    74  H    0.135387
    75  H    0.135367
    76  H    0.150907
    77  N   -0.600407
    78  H    0.340020
    79  C   -0.084113
    80  H    0.170040
    81  C    0.632777
    82  C   -0.269588
    83  H    0.152666
    84  H    0.168068
    85  O   -0.513705
    86  C   -0.337532
    87  H    0.146704
    88  H    0.052115
    89  C    0.505634
    90  O   -0.583216
    91  O   -0.623922
    92  N   -0.602609
    93  H    0.378713
    94  C   -0.084960
    95  H    0.197890
    96  C    0.641867
    97  C   -0.382831
    98  H    0.145581
    99  H    0.214292
   100  O   -0.513878
   101  C    0.578713
   102  N   -0.717701
   103  H    0.339506
   104  H    0.358186
   105  O   -0.519789
   106  N   -0.608849
   107  H    0.329156
   108  C   -0.037959
   109  H    0.192955
   110  C    0.627725
   111  C   -0.375684
   112  H    0.173087
   113  H    0.155618
   114  O   -0.566402
   115  C    0.134559
   116  C   -0.187482
   117  H    0.135456
   118  C   -0.197468
   119  H    0.145700
   120  C   -0.159222
   121  H    0.145075
   122  C   -0.188958
   123  H    0.136599
   124  O   -0.637090
   125  H    0.413618
   126  C    0.360587
   127  N   -0.609834
   128  H    0.374175
   129  C   -0.020518
   130  H    0.199100
   131  C    0.585960
   132  C   -0.292890
   133  H    0.146403
   134  H    0.164309
   135  O   -0.451602
   136  C   -0.308817
   137  H    0.250965
   138  H    0.148326
   139  C   -0.230475
   140  H    0.210399
   141  H    0.205933
   142  N   -0.570564
   143  H    0.354738
   144  N   -0.737850
   145  H    0.387804
   146  H    0.426726
   147  N   -0.755779
   148  H    0.376699
   149  H    0.370841
   150  C    0.793424
   151  O   -0.571630
   152  H    0.424029
 Sum of Mulliken charges =   1.00000

 Dipole moment (field-independent basis, Debye):
    X=            -38.5069    Y=             32.9161    Z=             -9.5797  Tot=             51.5561
 Quadrupole moment (field-independent basis, Debye-Ang):
   XX=              7.5808   YY=           -204.6472   ZZ=           -380.0352
   XY=           -139.9031   XZ=           -177.7151   YZ=             13.5923

 Normal termination of Gaussian 16 at Mon Aug 15 06:23:54 2022.
