 Gaussian 16, Revision C.01,
 Gaussian 16:  ES64L-G16RevC.01  3-Jul-2019

 ----------------------------------------------------------------------
 # B3LYP/6-31G* empiricaldispersion=gd3bj guess=read geom=check nosymm
 integral(ultrafinegrid)
 ----------------------------------------------------------------------

 ------------------------------------------------------
 Candidate Structure: Conf:929 Charge calc in gas phase
 ------------------------------------------------------
 Structure from the checkpoint file:  "conf-929.chk"
 Charge =  1 Multiplicity = 1

                          Input orientation:
 ---------------------------------------------------------------------
 Center     Atomic      Atomic             Coordinates (Angstroms)
 Number     Number       Type             X           Y           Z
 ---------------------------------------------------------------------
      1          7           0        1.904448   -0.285864    4.409196
      2          1           0        2.355907    0.353184    5.058702
      3          1           0        2.521155   -1.089126    4.298678
      4          1           0        1.739189    0.355090    2.827477
      5          6           0        0.611190   -0.717950    4.965460
      6          1           0        0.725864   -1.139960    5.978171
      7          6           0        0.070551   -1.826659    4.057523
      8          6           0       -0.356596    0.498551    5.061719
      9          1           0       -0.557529    0.834559    4.041523
     10          8           0        0.549564   -2.026520    2.923383
     11          6           0       -1.697707    0.154829    5.725249
     12          1           0       -1.557963   -0.352694    6.690733
     13          1           0       -2.250961    1.076489    5.918698
     14          1           0       -2.337310   -0.458204    5.086251
     15          6           0        0.315428    1.652760    5.820545
     16          1           0        0.632999    1.343978    6.825612
     17          1           0        1.179966    2.056861    5.284666
     18          1           0       -0.393898    2.476707    5.929651
     19          7           0       -0.942235   -2.556464    4.549853
     20          1           0       -1.313490   -2.295571    5.453068
     21          6           0       -1.793982   -3.430344    3.731472
     22          1           0       -1.148407   -3.875015    2.970389
     23          6           0       -2.846527   -2.556366    2.997868
     24          6           0       -2.371393   -4.578588    4.580585
     25          1           0       -1.488851   -5.096136    4.985404
     26          8           0       -4.053152   -2.634379    3.206144
     27          6           0       -3.117087   -5.580055    3.676310
     28          1           0       -2.498827   -5.774170    2.788275
     29          1           0       -4.042559   -5.117764    3.320158
     30          6           0       -3.227208   -4.101201    5.763925
     31          1           0       -4.114739   -3.572741    5.411947
     32          1           0       -2.674213   -3.437683    6.442695
     33          1           0       -3.542673   -4.954577    6.369996
     34          6           0       -3.423442   -6.913644    4.362443
     35          1           0       -3.883179   -7.612441    3.656201
     36          1           0       -2.509801   -7.382336    4.748371
     37          1           0       -4.118173   -6.793143    5.199883
     38          7           0       -2.315089   -1.674319    2.110889
     39          1           0       -1.332840   -1.713151    1.858660
     40          6           0       -3.174677   -0.892312    1.243678
     41          1           0       -4.013422   -1.535541    0.945133
     42          6           0       -2.382228   -0.571925   -0.030327
     43          6           0       -3.808029    0.320575    1.953686
     44          1           0       -4.379675   -0.090935    2.791283
     45          1           0       -4.567914    0.752356    1.284552
     46          8           0       -1.261168   -1.047013   -0.236459
     47          6           0       -2.900647    1.429385    2.451120
     48          6           0       -1.633654    1.701318    1.923915
     49          1           0       -1.188307    1.067948    1.170493
     50          6           0       -3.396242    2.274004    3.456111
     51          1           0       -4.376219    2.072481    3.882763
     52          6           0       -0.895742    2.800582    2.370037
     53          1           0        0.083590    2.983432    1.941189
     54          6           0       -2.662189    3.369338    3.905757
     55          1           0       -3.072582    4.013538    4.678463
     56          6           0       -1.406329    3.641022    3.356403
     57          1           0       -0.834935    4.500129    3.696003
     58          7           0       -3.002373    0.221472   -0.927871
     59          1           0       -3.831101    0.727311   -0.650893
     60          6           0       -2.345193    0.612798   -2.166933
     61          1           0       -2.045814   -0.305159   -2.681481
     62          6           0       -1.096492    1.460743   -1.862239
     63          6           0       -3.304541    1.426720   -3.042747
     64          1           0       -2.765419    1.691835   -3.961509
     65          1           0       -3.512715    2.371281   -2.524096
     66          8           0       -1.154141    2.470459   -1.168864
     67          6           0       -4.620422    0.722034   -3.418143
     68          1           0       -5.179553    0.510123   -2.494463
     69          6           0       -5.478265    1.662226   -4.273967
     70          1           0       -4.976992    1.889505   -5.222998
     71          1           0       -5.667098    2.611523   -3.759979
     72          1           0       -6.445756    1.205954   -4.508774
     73          6           0       -4.380973   -0.611289   -4.136023
     74          1           0       -3.775882   -0.463758   -5.039775
     75          1           0       -5.330838   -1.061640   -4.442891
     76          1           0       -3.865106   -1.336230   -3.497060
     77          7           0        0.028835    1.021296   -2.472719
     78          1           0        0.052111    0.108356   -2.911532
     79          6           0        1.320709    1.663930   -2.350638
     80          1           0        1.235861    2.714801   -2.650005
     81          6           0        2.248461    0.899531   -3.296199
     82          6           0        1.884222    1.625400   -0.901821
     83          1           0        1.158243    2.137918   -0.267857
     84          1           0        2.820226    2.194747   -0.878374
     85          8           0        2.011230   -0.279589   -3.591932
     86          6           0        2.117832    0.191346   -0.410017
     87          1           0        1.199423   -0.382751   -0.581821
     88          1           0        2.931032   -0.290233   -0.953838
     89          6           0        2.413679    0.033832    1.059122
     90          8           0        3.335390   -0.677843    1.477679
     91          8           0        1.578932    0.657189    1.863101
     92          7           0        3.361531    1.536552   -3.699474
     93          1           0        3.493667    2.543057   -3.594971
     94          6           0        4.425401    0.816225   -4.391373
     95          1           0        4.067965    0.465091   -5.367692
     96          6           0        4.802365   -0.372687   -3.484584
     97          6           0        5.658405    1.722364   -4.559051
     98          1           0        6.092935    1.869907   -3.564704
     99          1           0        6.396172    1.195259   -5.171732
    100          8           0        5.246749   -0.138499   -2.357417
    101          6           0        5.326772    3.101633   -5.117280
    102          7           0        5.974454    3.466323   -6.248730
    103          1           0        5.819138    4.397422   -6.612258
    104          1           0        6.682363    2.892933   -6.681330
    105          8           0        4.517852    3.840699   -4.554542
    106          7           0        4.568103   -1.626509   -3.941880
    107          1           0        4.006192   -1.686159   -4.781904
    108          6           0        4.290790   -2.665314   -2.934986
    109          1           0        3.946228   -2.119578   -2.051488
    110          6           0        5.532357   -3.425223   -2.424713
    111          6           0        3.157835   -3.633590   -3.337899
    112          1           0        2.468605   -3.104664   -4.004982
    113          1           0        3.570075   -4.499065   -3.861445
    114          8           0        5.633513   -4.642645   -2.488175
    115          6           0        2.427281   -4.035418   -2.069100
    116          6           0        2.752355   -5.184065   -1.341654
    117          1           0        3.441215   -5.907465   -1.764695
    118          6           0        1.536537   -3.120027   -1.490591
    119          1           0        1.251332   -2.234727   -2.051472
    120          6           0        2.291947   -5.360002   -0.028371
    121          1           0        2.568100   -6.240747    0.544171
    122          6           0        1.065348   -3.277598   -0.191848
    123          1           0        0.384146   -2.546176    0.228308
    124          8           0        1.161149   -4.502769    1.894716
    125          1           0        0.751000   -3.656068    2.190944
    126          6           0        1.487038   -4.377602    0.561438
    127          7           0        6.407506   -2.646789   -1.706525
    128          1           0        6.124039   -1.668632   -1.641545
    129          6           0        6.965938   -3.228972   -0.495728
    130          1           0        7.753034   -3.950983   -0.727305
    131          6           0        5.891603   -4.013259    0.263819
    132          6           0        7.534828   -2.098422    0.392416
    133          1           0        8.416682   -1.698975   -0.116670
    134          1           0        6.798769   -1.284242    0.414859
    135          8           0        6.111851   -4.979376    0.969845
    136          6           0        7.887474   -2.534407    1.832069
    137          1           0        7.928665   -3.625964    1.893353
    138          1           0        8.887730   -2.177204    2.098856
    139          6           0        6.934494   -1.976486    2.906050
    140          1           0        7.155028   -2.422185    3.880391
    141          1           0        7.087558   -0.896869    2.998703
    142          7           0        5.501281   -2.149421    2.643782
    143          1           0        5.013268   -1.448093    2.086858
    144          7           0        5.284341   -4.235983    3.657858
    145          1           0        4.633851   -4.946830    3.968388
    146          1           0        6.084100   -4.621960    3.165035
    147          7           0        3.395258   -3.008223    3.026968
    148          1           0        2.804045   -3.832321    2.914141
    149          1           0        3.047143   -2.182206    2.528677
    150          6           0        4.730350   -3.141257    3.082147
    151          8           0        4.680829   -3.453697    0.122338
    152          1           0        3.980680   -4.088619    0.391485
 ---------------------------------------------------------------------

 SCF Done:  E(RB3LYP) =  -3587.05483246     A.U. after    2 cycles

 Alpha  occ. eigenvalues --  -19.27138 -19.25374 -19.25374 -19.23377 -19.22546
 Alpha  occ. eigenvalues --  -19.21980 -19.21434 -19.20749 -19.20459 -19.20299
 Alpha  occ. eigenvalues --  -19.19386 -19.19216 -19.17943 -14.48241 -14.47929
 Alpha  occ. eigenvalues --  -14.46718 -14.46679 -14.44955 -14.44707 -14.44302
 Alpha  occ. eigenvalues --  -14.44278 -14.43952 -14.43089 -14.42668 -14.41617
 Alpha  occ. eigenvalues --  -10.44194 -10.40323 -10.40123 -10.39779 -10.38206
 Alpha  occ. eigenvalues --  -10.37955 -10.37374 -10.37243 -10.36470 -10.35653
 Alpha  occ. eigenvalues --  -10.35124 -10.33428 -10.33416 -10.32883 -10.32436
 Alpha  occ. eigenvalues --  -10.31855 -10.31718 -10.31268 -10.31258 -10.30685
 Alpha  occ. eigenvalues --  -10.30457 -10.29174 -10.28673 -10.28569 -10.27821
 Alpha  occ. eigenvalues --  -10.26789 -10.26764 -10.26598 -10.26316 -10.26284
 Alpha  occ. eigenvalues --  -10.26219 -10.26156 -10.26141 -10.26082 -10.25836
 Alpha  occ. eigenvalues --  -10.25641 -10.25610 -10.25590 -10.25579 -10.25527
 Alpha  occ. eigenvalues --  -10.25075 -10.24943 -10.24856 -10.24655 -10.24536
 Alpha  occ. eigenvalues --  -10.24126 -10.24099 -10.23461 -10.23126 -10.23042
 Alpha  occ. eigenvalues --   -1.18814  -1.17458  -1.14922  -1.13701  -1.13162
 Alpha  occ. eigenvalues --   -1.12884  -1.12540  -1.12332  -1.12080  -1.11182
 Alpha  occ. eigenvalues --   -1.10908  -1.09862  -1.09848  -1.08274  -1.03298
 Alpha  occ. eigenvalues --   -1.02486  -1.01378  -1.01285  -1.00891  -1.00867
 Alpha  occ. eigenvalues --   -1.00450  -0.99859  -0.99610  -0.99550  -0.99370
 Alpha  occ. eigenvalues --   -0.92728  -0.91790  -0.89453  -0.89237  -0.88710
 Alpha  occ. eigenvalues --   -0.88063  -0.87685  -0.86793  -0.86008  -0.85970
 Alpha  occ. eigenvalues --   -0.83987  -0.82736  -0.82266  -0.81908  -0.80720
 Alpha  occ. eigenvalues --   -0.80373  -0.80233  -0.79493  -0.78472  -0.77684
 Alpha  occ. eigenvalues --   -0.76814  -0.76521  -0.76464  -0.75023  -0.74388
 Alpha  occ. eigenvalues --   -0.73646  -0.73027  -0.72793  -0.71506  -0.71093
 Alpha  occ. eigenvalues --   -0.70410  -0.69897  -0.69521  -0.69126  -0.68873
 Alpha  occ. eigenvalues --   -0.68215  -0.67762  -0.67571  -0.67187  -0.67006
 Alpha  occ. eigenvalues --   -0.66497  -0.66468  -0.66012  -0.65860  -0.65428
 Alpha  occ. eigenvalues --   -0.64321  -0.64199  -0.63835  -0.63673  -0.63032
 Alpha  occ. eigenvalues --   -0.62861  -0.62619  -0.61726  -0.61675  -0.61484
 Alpha  occ. eigenvalues --   -0.61185  -0.60805  -0.60447  -0.60136  -0.59010
 Alpha  occ. eigenvalues --   -0.58639  -0.58175  -0.58047  -0.57889  -0.57722
 Alpha  occ. eigenvalues --   -0.57265  -0.57037  -0.56709  -0.56474  -0.56379
 Alpha  occ. eigenvalues --   -0.56201  -0.56055  -0.55734  -0.55334  -0.54931
 Alpha  occ. eigenvalues --   -0.54550  -0.54504  -0.54104  -0.53890  -0.53409
 Alpha  occ. eigenvalues --   -0.53261  -0.53108  -0.52803  -0.52748  -0.52496
 Alpha  occ. eigenvalues --   -0.52235  -0.51885  -0.51738  -0.51581  -0.51392
 Alpha  occ. eigenvalues --   -0.51270  -0.50970  -0.50853  -0.50632  -0.50539
 Alpha  occ. eigenvalues --   -0.50464  -0.50373  -0.49938  -0.49729  -0.49575
 Alpha  occ. eigenvalues --   -0.49367  -0.49126  -0.49035  -0.48813  -0.48537
 Alpha  occ. eigenvalues --   -0.48408  -0.48294  -0.48172  -0.47910  -0.47821
 Alpha  occ. eigenvalues --   -0.47613  -0.47312  -0.47208  -0.47146  -0.46990
 Alpha  occ. eigenvalues --   -0.46906  -0.46682  -0.46458  -0.46320  -0.46204
 Alpha  occ. eigenvalues --   -0.46023  -0.45554  -0.45328  -0.45095  -0.44979
 Alpha  occ. eigenvalues --   -0.44712  -0.44593  -0.44567  -0.44422  -0.44329
 Alpha  occ. eigenvalues --   -0.43910  -0.43890  -0.43728  -0.43415  -0.43332
 Alpha  occ. eigenvalues --   -0.42941  -0.42843  -0.42666  -0.42267  -0.42253
 Alpha  occ. eigenvalues --   -0.42209  -0.42028  -0.41956  -0.41882  -0.41108
 Alpha  occ. eigenvalues --   -0.40716  -0.40501  -0.40194  -0.40057  -0.39809
 Alpha  occ. eigenvalues --   -0.39734  -0.39364  -0.39259  -0.39067  -0.39025
 Alpha  occ. eigenvalues --   -0.39021  -0.38938  -0.38731  -0.37651  -0.37430
 Alpha  occ. eigenvalues --   -0.37027  -0.36765  -0.36620  -0.36430  -0.35815
 Alpha  occ. eigenvalues --   -0.35659  -0.35297  -0.35189  -0.34624  -0.34490
 Alpha  occ. eigenvalues --   -0.34288  -0.33679  -0.32974  -0.32766  -0.32301
 Alpha  occ. eigenvalues --   -0.32192  -0.32027  -0.31550  -0.31125  -0.30658
 Alpha  occ. eigenvalues --   -0.30361  -0.29291
 Alpha virt. eigenvalues --   -0.10215  -0.09778  -0.08679  -0.08510  -0.08186
 Alpha virt. eigenvalues --   -0.07556  -0.06859  -0.06692  -0.06628  -0.06348
 Alpha virt. eigenvalues --   -0.06070  -0.05827  -0.05447  -0.05411  -0.04081

 Mulliken charges:
               1
     1  N   -0.795246
     2  H    0.337204
     3  H    0.339747
     4  H    0.484441
     5  C   -0.065111
     6  H    0.147312
     7  C    0.633801
     8  C   -0.078339
     9  H    0.189908
    10  O   -0.591889
    11  C   -0.492177
    12  H    0.135573
    13  H    0.178200
    14  H    0.165930
    15  C   -0.471372
    16  H    0.142922
    17  H    0.148689
    18  H    0.176452
    19  N   -0.593898
    20  H    0.358506
    21  C   -0.101219
    22  H    0.175314
    23  C    0.637032
    24  C   -0.070193
    25  H    0.130380
    26  O   -0.519661
    27  C   -0.273826
    28  H    0.133435
    29  H    0.176351
    30  C   -0.486361
    31  H    0.199213
    32  H    0.119743
    33  H    0.166371
    34  C   -0.453480
    35  H    0.157469
    36  H    0.141705
    37  H    0.155341
    38  N   -0.635333
    39  H    0.387247
    40  C   -0.042638
    41  H    0.196361
    42  C    0.628466
    43  C   -0.384765
    44  H    0.194869
    45  H    0.152302
    46  O   -0.557251
    47  C    0.171260
    48  C   -0.195571
    49  H    0.156977
    50  C   -0.187576
    51  H    0.132923
    52  C   -0.134032
    53  H    0.146609
    54  C   -0.135553
    55  H    0.139740
    56  C   -0.132455
    57  H    0.136205
    58  N   -0.597548
    59  H    0.351128
    60  C   -0.039756
    61  H    0.159169
    62  C    0.643680
    63  C   -0.303994
    64  H    0.153320
    65  H    0.167092
    66  O   -0.538081
    67  C   -0.075477
    68  H    0.117893
    69  C   -0.443205
    70  H    0.148002
    71  H    0.148706
    72  H    0.154021
    73  C   -0.451708
    74  H    0.144775
    75  H    0.157104
    76  H    0.147584
    77  N   -0.623514
    78  H    0.363064
    79  C   -0.038616
    80  H    0.183356
    81  C    0.638595
    82  C   -0.291914
    83  H    0.214035
    84  H    0.154979
    85  O   -0.571164
    86  C   -0.393442
    87  H    0.216566
    88  H    0.195921
    89  C    0.604035
    90  O   -0.563357
    91  O   -0.580497
    92  N   -0.629303
    93  H    0.385794
    94  C   -0.014760
    95  H    0.165170
    96  C    0.624196
    97  C   -0.403048
    98  H    0.216769
    99  H    0.163358
   100  O   -0.547971
   101  C    0.617858
   102  N   -0.740013
   103  H    0.361941
   104  H    0.352928
   105  O   -0.519300
   106  N   -0.573755
   107  H    0.346906
   108  C   -0.081633
   109  H    0.212467
   110  C    0.626465
   111  C   -0.378078
   112  H    0.162690
   113  H    0.185638
   114  O   -0.508436
   115  C    0.136323
   116  C   -0.179403
   117  H    0.174710
   118  C   -0.203100
   119  H    0.162739
   120  C   -0.252350
   121  H    0.150768
   122  C   -0.198542
   123  H    0.193446
   124  O   -0.724809
   125  H    0.469458
   126  C    0.327225
   127  N   -0.627745
   128  H    0.381526
   129  C   -0.011740
   130  H    0.199819
   131  C    0.604415
   132  C   -0.315070
   133  H    0.185271
   134  H    0.156628
   135  O   -0.511242
   136  C   -0.297244
   137  H    0.179014
   138  H    0.171722
   139  C   -0.169701
   140  H    0.188048
   141  H    0.182531
   142  N   -0.597613
   143  H    0.413459
   144  N   -0.730464
   145  H    0.362439
   146  H    0.393162
   147  N   -0.825608
   148  H    0.375088
   149  H    0.427512
   150  C    0.717368
   151  O   -0.588704
   152  H    0.427980
 Sum of Mulliken charges =   1.00000

 Dipole moment (field-independent basis, Debye):
    X=             14.4902    Y=             -2.9167    Z=              4.7168  Tot=             15.5152
 Quadrupole moment (field-independent basis, Debye-Ang):
   XX=           -304.4825   YY=           -421.7036   ZZ=           -295.4482
   XY=             -0.5433   XZ=             -7.6321   YZ=            -48.8225

 Normal termination of Gaussian 16 at Mon Aug 15 06:26:04 2022.
