 Gaussian 16, Revision C.01,
 Gaussian 16:  ES64L-G16RevC.01  3-Jul-2019

 ----------------------------------------------------------------------
 # B3LYP/6-31G* empiricaldispersion=gd3bj guess=read geom=check nosymm
 integral(ultrafinegrid)
 ----------------------------------------------------------------------

 ------------------------------------------------------
 Candidate Structure: Conf:156 Charge calc in gas phase
 ------------------------------------------------------
 Structure from the checkpoint file:  "conf-156.chk"
 Charge =  1 Multiplicity = 1

                          Input orientation:
 ---------------------------------------------------------------------
 Center     Atomic      Atomic             Coordinates (Angstroms)
 Number     Number       Type             X           Y           Z
 ---------------------------------------------------------------------
      1          7           0      -10.836087    0.273605    7.226495
      2          1           0      -11.701367    0.188522    6.688110
      3          1           0      -10.381319   -0.689139    7.320115
      4          1           0      -11.056085    0.670472    8.143161
      5          6           0       -9.750048    1.036374    6.497158
      6          1           0      -10.205108    1.542543    5.642910
      7          6           0       -8.796612   -0.096696    6.045252
      8          6           0       -9.053908    2.055348    7.424141
      9          1           0       -8.219604    2.454907    6.834226
     10          8           0       -8.955797   -1.219957    6.555325
     11          6           0       -9.989668    3.217270    7.779032
     12          1           0      -10.836709    2.897690    8.402223
     13          1           0       -9.446362    3.971549    8.355238
     14          1           0      -10.391687    3.703555    6.883874
     15          6           0       -8.457718    1.390693    8.672365
     16          1           0       -9.228074    0.984238    9.341896
     17          1           0       -7.767810    0.582077    8.417656
     18          1           0       -7.904236    2.133861    9.251217
     19          7           0       -7.863932    0.253835    5.180779
     20          1           0       -7.769628    1.210770    4.826629
     21          6           0       -6.737385   -0.575852    4.756467
     22          1           0       -6.352429   -1.102758    5.633146
     23          6           0       -5.716115    0.464339    4.262872
     24          6           0       -7.149595   -1.605738    3.669356
     25          1           0       -7.971544   -2.176072    4.122596
     26          8           0       -6.103404    1.596006    3.953427
     27          6           0       -6.026108   -2.605085    3.332560
     28          1           0       -5.204671   -2.092018    2.817657
     29          1           0       -6.438779   -3.308870    2.599780
     30          6           0       -7.665242   -0.913387    2.403150
     31          1           0       -6.870379   -0.347021    1.905969
     32          1           0       -8.482258   -0.217812    2.621625
     33          1           0       -8.039504   -1.657708    1.693574
     34          6           0       -5.481114   -3.400378    4.523424
     35          1           0       -4.784852   -4.171391    4.181256
     36          1           0       -4.930969   -2.775828    5.238343
     37          1           0       -6.289792   -3.893657    5.075472
     38          7           0       -4.440894    0.061203    4.208705
     39          1           0       -4.172581   -0.909168    4.344094
     40          6           0       -3.362203    0.910427    3.745982
     41          1           0       -3.782238    1.657679    3.068149
     42          6           0       -2.375929   -0.018711    3.022329
     43          6           0       -2.652200    1.621957    4.934411
     44          1           0       -1.939181    2.346929    4.526205
     45          1           0       -2.071947    0.869992    5.480880
     46          8           0       -2.392580   -1.230746    3.257131
     47          6           0       -3.635626    2.289528    5.864100
     48          6           0       -4.156883    3.555824    5.576693
     49          1           0       -3.810600    4.089766    4.695740
     50          6           0       -4.099392    1.614290    6.998815
     51          1           0       -3.694161    0.634470    7.237937
     52          6           0       -5.121365    4.133988    6.399352
     53          1           0       -5.508135    5.121485    6.164982
     54          6           0       -5.062741    2.188498    7.828840
     55          1           0       -5.387663    1.660575    8.721002
     56          6           0       -5.578175    3.451070    7.529358
     57          1           0       -6.307139    3.916707    8.188405
     58          7           0       -1.525380    0.594291    2.186850
     59          1           0       -1.491322    1.608815    2.128149
     60          6           0       -0.390519   -0.050129    1.542990
     61          1           0       -0.109189   -0.925792    2.133405
     62          6           0        0.735910    0.988036    1.539467
     63          6           0       -0.698375   -0.454916    0.086017
     64          1           0        0.238352   -0.761591   -0.389219
     65          1           0       -1.024042    0.449257   -0.442966
     66          8           0        0.479128    2.190878    1.641093
     67          6           0       -1.741826   -1.571180   -0.076123
     68          1           0       -2.663344   -1.260485    0.435613
     69          6           0       -2.062882   -1.751089   -1.565661
     70          1           0       -1.175735   -2.086140   -2.118284
     71          1           0       -2.405626   -0.814639   -2.020804
     72          1           0       -2.843978   -2.505746   -1.711134
     73          6           0       -1.269979   -2.892481    0.544677
     74          1           0       -0.292361   -3.182135    0.140328
     75          1           0       -1.979993   -3.697131    0.320964
     76          1           0       -1.195320   -2.817071    1.633040
     77          7           0        1.989425    0.499936    1.382652
     78          1           0        2.064859   -0.457591    1.050683
     79          6           0        3.040638    1.412339    0.941055
     80          1           0        3.071114    2.252777    1.633897
     81          6           0        2.643575    1.957712   -0.442853
     82          6           0        4.405726    0.687900    0.958542
     83          1           0        4.221831   -0.371410    0.742693
     84          1           0        4.801871    0.743287    1.977547
     85          8           0        2.000829    1.294289   -1.257108
     86          6           0        5.457157    1.161976   -0.049152
     87          1           0        6.311207    0.477408   -0.015232
     88          1           0        5.050305    1.057162   -1.060402
     89          6           0        6.028098    2.586634    0.056953
     90          8           0        5.371812    3.431890    0.781713
     91          8           0        7.050789    2.836231   -0.600383
     92          7           0        3.029095    3.240500   -0.649504
     93          1           0        3.799278    3.570266   -0.045692
     94          6           0        2.900346    3.858195   -1.968251
     95          1           0        2.023060    3.413323   -2.443739
     96          6           0        4.173711    3.477988   -2.738023
     97          6           0        2.742410    5.372441   -1.843977
     98          1           0        3.569527    5.771887   -1.243984
     99          1           0        2.831531    5.834896   -2.829467
    100          8           0        5.177095    4.188395   -2.704716
    101          6           0        1.422019    5.875560   -1.252598
    102          7           0        0.804370    5.072487   -0.339883
    103          1           0       -0.029300    5.437398    0.097829
    104          1           0        1.226954    4.233276    0.035308
    105          8           0        0.962780    6.958587   -1.590827
    106          7           0        4.131661    2.269717   -3.352549
    107          1           0        3.318411    1.691781   -3.161978
    108          6           0        5.330518    1.600136   -3.833138
    109          1           0        6.007025    1.436538   -2.982828
    110          6           0        6.075165    2.463157   -4.866484
    111          6           0        4.960258    0.233158   -4.460392
    112          1           0        4.310978    0.417128   -5.323129
    113          1           0        5.883778   -0.217910   -4.839113
    114          8           0        5.516769    3.239981   -5.622313
    115          6           0        4.286450   -0.672710   -3.457715
    116          6           0        2.894400   -0.813546   -3.426968
    117          1           0        2.293072   -0.364076   -4.213133
    118          6           0        5.033581   -1.297485   -2.451995
    119          1           0        6.118189   -1.228332   -2.464430
    120          6           0        2.255500   -1.483675   -2.387670
    121          1           0        1.174734   -1.549784   -2.348998
    122          6           0        4.409586   -1.971994   -1.405785
    123          1           0        5.005090   -2.425244   -0.615938
    124          8           0        2.341397   -2.536635   -0.262036
    125          1           0        2.961033   -3.056699    0.273931
    126          6           0        3.014775   -2.020170   -1.352084
    127          7           0        7.426237    2.230064   -4.873189
    128          1           0        7.820005    1.615522   -4.172786
    129          6           0        8.349675    3.129743   -5.530373
    130          1           0        7.769028    3.690657   -6.265973
    131          6           0        9.434309    2.327114   -6.225250
    132          6           0        9.011745    4.122170   -4.525226
    133          1           0        9.780561    3.587380   -3.949656
    134          1           0        9.521000    4.906201   -5.096360
    135          8           0        9.730672    1.184350   -5.958296
    136          6           0        7.951291    4.672547   -3.578751
    137          1           0        7.168071    5.190461   -4.140782
    138          1           0        7.464191    3.829998   -3.091215
    139          6           0        8.453757    5.565346   -2.449959
    140          1           0        9.323553    5.107709   -1.959654
    141          1           0        8.748585    6.556079   -2.822412
    142          7           0        7.359067    5.691491   -1.477287
    143          1           0        6.537912    5.111117   -1.663143
    144          7           0        8.562559    6.922437    0.078717
    145          1           0        8.914252    6.939990    1.023692
    146          1           0        9.210640    7.188725   -0.646475
    147          7           0        6.635401    5.777776    0.715967
    148          1           0        6.720307    6.226591    1.617321
    149          1           0        6.118573    4.840057    0.687823
    150          6           0        7.520511    6.102334   -0.223602
    151          8           0       10.086844    3.072916   -7.143339
    152          1           0       10.796233    2.509395   -7.506838
 ---------------------------------------------------------------------

 SCF Done:  E(RB3LYP) =  -3586.98974292     A.U. after    3 cycles

 Alpha  occ. eigenvalues --  -19.26192 -19.24283 -19.24213 -19.21040 -19.19058
 Alpha  occ. eigenvalues --  -19.18463 -19.18153 -19.16599 -19.16504 -19.15186
 Alpha  occ. eigenvalues --  -19.13417 -19.12810 -19.11760 -14.59370 -14.48468
 Alpha  occ. eigenvalues --  -14.44664 -14.43955 -14.42835 -14.41738 -14.41312
 Alpha  occ. eigenvalues --  -14.40419 -14.40296 -14.39975 -14.39556 -14.37271
 Alpha  occ. eigenvalues --  -10.42671 -10.39866 -10.38455 -10.38045 -10.36424
 Alpha  occ. eigenvalues --  -10.36120 -10.34603 -10.33806 -10.33280 -10.33280
 Alpha  occ. eigenvalues --  -10.32915 -10.32609 -10.31410 -10.31052 -10.30584
 Alpha  occ. eigenvalues --  -10.30467 -10.30267 -10.30129 -10.29094 -10.28277
 Alpha  occ. eigenvalues --  -10.28263 -10.28140 -10.28013 -10.27557 -10.27493
 Alpha  occ. eigenvalues --  -10.27188 -10.27041 -10.26765 -10.26710 -10.26398
 Alpha  occ. eigenvalues --  -10.26342 -10.26100 -10.25958 -10.25457 -10.25030
 Alpha  occ. eigenvalues --  -10.24531 -10.24426 -10.24291 -10.24238 -10.24139
 Alpha  occ. eigenvalues --  -10.23948 -10.23615 -10.23576 -10.23372 -10.23274
 Alpha  occ. eigenvalues --  -10.22616 -10.22394 -10.21717 -10.21707 -10.20902
 Alpha  occ. eigenvalues --   -1.18623  -1.15084  -1.13547  -1.12992  -1.11699
 Alpha  occ. eigenvalues --   -1.11019  -1.09885  -1.08858  -1.07928  -1.07356
 Alpha  occ. eigenvalues --   -1.07126  -1.06088  -1.05596  -1.05438  -1.04803
 Alpha  occ. eigenvalues --   -1.01610  -0.99580  -0.98094  -0.97711  -0.97156
 Alpha  occ. eigenvalues --   -0.97037  -0.96806  -0.96339  -0.94994  -0.94894
 Alpha  occ. eigenvalues --   -0.93089  -0.91899  -0.90657  -0.90560  -0.87237
 Alpha  occ. eigenvalues --   -0.86294  -0.85827  -0.85155  -0.84162  -0.83591
 Alpha  occ. eigenvalues --   -0.82781  -0.81884  -0.81666  -0.81588  -0.81268
 Alpha  occ. eigenvalues --   -0.80425  -0.80134  -0.79980  -0.79052  -0.77684
 Alpha  occ. eigenvalues --   -0.75300  -0.74119  -0.73912  -0.73559  -0.73378
 Alpha  occ. eigenvalues --   -0.72562  -0.72306  -0.72056  -0.70966  -0.70850
 Alpha  occ. eigenvalues --   -0.70013  -0.69728  -0.69214  -0.68220  -0.67704
 Alpha  occ. eigenvalues --   -0.67633  -0.67075  -0.66495  -0.66267  -0.65903
 Alpha  occ. eigenvalues --   -0.65321  -0.65228  -0.64907  -0.64013  -0.63431
 Alpha  occ. eigenvalues --   -0.63264  -0.62883  -0.62279  -0.62001  -0.61782
 Alpha  occ. eigenvalues --   -0.61665  -0.61321  -0.60945  -0.60131  -0.59801
 Alpha  occ. eigenvalues --   -0.59311  -0.58900  -0.58531  -0.57954  -0.57626
 Alpha  occ. eigenvalues --   -0.57105  -0.56743  -0.56482  -0.56255  -0.55900
 Alpha  occ. eigenvalues --   -0.55692  -0.55235  -0.54950  -0.54474  -0.54422
 Alpha  occ. eigenvalues --   -0.53978  -0.53768  -0.53583  -0.53237  -0.53119
 Alpha  occ. eigenvalues --   -0.52859  -0.52784  -0.52560  -0.52369  -0.52325
 Alpha  occ. eigenvalues --   -0.52133  -0.51981  -0.51692  -0.51395  -0.51118
 Alpha  occ. eigenvalues --   -0.50792  -0.50751  -0.50705  -0.50495  -0.50212
 Alpha  occ. eigenvalues --   -0.50190  -0.49931  -0.49641  -0.49418  -0.49291
 Alpha  occ. eigenvalues --   -0.48956  -0.48648  -0.48423  -0.48185  -0.47971
 Alpha  occ. eigenvalues --   -0.47900  -0.47551  -0.47406  -0.47367  -0.47306
 Alpha  occ. eigenvalues --   -0.47117  -0.46997  -0.46960  -0.46773  -0.46438
 Alpha  occ. eigenvalues --   -0.46339  -0.46175  -0.45738  -0.45546  -0.45327
 Alpha  occ. eigenvalues --   -0.45105  -0.44897  -0.44790  -0.44669  -0.44519
 Alpha  occ. eigenvalues --   -0.44415  -0.44207  -0.44062  -0.43844  -0.43593
 Alpha  occ. eigenvalues --   -0.43287  -0.43174  -0.42979  -0.42587  -0.42305
 Alpha  occ. eigenvalues --   -0.42235  -0.42184  -0.42110  -0.41589  -0.41478
 Alpha  occ. eigenvalues --   -0.41401  -0.41312  -0.41246  -0.41017  -0.40859
 Alpha  occ. eigenvalues --   -0.40841  -0.40522  -0.40378  -0.40145  -0.40025
 Alpha  occ. eigenvalues --   -0.39550  -0.39242  -0.39008  -0.38680  -0.38462
 Alpha  occ. eigenvalues --   -0.38182  -0.37889  -0.37772  -0.37456  -0.37147
 Alpha  occ. eigenvalues --   -0.36974  -0.36597  -0.36219  -0.35479  -0.34762
 Alpha  occ. eigenvalues --   -0.34516  -0.33437  -0.33009  -0.32621  -0.32285
 Alpha  occ. eigenvalues --   -0.32164  -0.31891  -0.31453  -0.31430  -0.31357
 Alpha  occ. eigenvalues --   -0.30946  -0.30246  -0.29692  -0.29507  -0.29131
 Alpha  occ. eigenvalues --   -0.28805  -0.28519  -0.28173  -0.27772  -0.27124
 Alpha  occ. eigenvalues --   -0.26689  -0.25831
 Alpha virt. eigenvalues --   -0.11499  -0.11041  -0.08292  -0.07561  -0.06697
 Alpha virt. eigenvalues --   -0.06378  -0.05816  -0.04779  -0.04550  -0.04052
 Alpha virt. eigenvalues --   -0.03682  -0.03535  -0.03483  -0.03343  -0.02175

 Mulliken charges:
               1
     1  N   -0.760965
     2  H    0.415009
     3  H    0.433546
     4  H    0.408552
     5  C   -0.105006
     6  H    0.209036
     7  C    0.659297
     8  C   -0.127535
     9  H    0.200386
    10  O   -0.557615
    11  C   -0.462435
    12  H    0.136613
    13  H    0.195287
    14  H    0.172946
    15  C   -0.479866
    16  H    0.135710
    17  H    0.191030
    18  H    0.194176
    19  N   -0.609859
    20  H    0.379826
    21  C   -0.063722
    22  H    0.186330
    23  C    0.647129
    24  C   -0.083105
    25  H    0.153619
    26  O   -0.555708
    27  C   -0.283089
    28  H    0.161359
    29  H    0.155969
    30  C   -0.460566
    31  H    0.168398
    32  H    0.135198
    33  H    0.164358
    34  C   -0.461879
    35  H    0.175586
    36  H    0.136398
    37  H    0.155251
    38  N   -0.625738
    39  H    0.376220
    40  C   -0.064349
    41  H    0.190046
    42  C    0.637217
    43  C   -0.368013
    44  H    0.173218
    45  H    0.166895
    46  O   -0.549473
    47  C    0.179810
    48  C   -0.147816
    49  H    0.138799
    50  C   -0.187438
    51  H    0.130853
    52  C   -0.130268
    53  H    0.141855
    54  C   -0.139622
    55  H    0.128687
    56  C   -0.148108
    57  H    0.122883
    58  N   -0.601905
    59  H    0.354427
    60  C   -0.085046
    61  H    0.180652
    62  C    0.637557
    63  C   -0.263663
    64  H    0.175797
    65  H    0.147505
    66  O   -0.556885
    67  C   -0.066331
    68  H    0.123022
    69  C   -0.453827
    70  H    0.152050
    71  H    0.143158
    72  H    0.142966
    73  C   -0.474141
    74  H    0.151766
    75  H    0.136487
    76  H    0.166012
    77  N   -0.611966
    78  H    0.353557
    79  C   -0.043758
    80  H    0.192076
    81  C    0.599174
    82  C   -0.267739
    83  H    0.120496
    84  H    0.160962
    85  O   -0.553531
    86  C   -0.385671
    87  H    0.153615
    88  H    0.176354
    89  C    0.612238
    90  O   -0.653396
    91  O   -0.576346
    92  N   -0.639447
    93  H    0.394204
    94  C   -0.090237
    95  H    0.183941
    96  C    0.666029
    97  C   -0.366524
    98  H    0.178769
    99  H    0.190999
   100  O   -0.546401
   101  C    0.578573
   102  N   -0.760889
   103  H    0.329067
   104  H    0.377332
   105  O   -0.514586
   106  N   -0.628071
   107  H    0.372480
   108  C   -0.045031
   109  H    0.172395
   110  C    0.643830
   111  C   -0.392960
   112  H    0.177748
   113  H    0.172327
   114  O   -0.517436
   115  C    0.164943
   116  C   -0.203349
   117  H    0.142623
   118  C   -0.189648
   119  H    0.138908
   120  C   -0.120015
   121  H    0.157263
   122  C   -0.185402
   123  H    0.130199
   124  O   -0.660781
   125  H    0.413875
   126  C    0.332276
   127  N   -0.597408
   128  H    0.338004
   129  C   -0.048238
   130  H    0.210880
   131  C    0.585722
   132  C   -0.288702
   133  H    0.144909
   134  H    0.163443
   135  O   -0.464418
   136  C   -0.319460
   137  H    0.183261
   138  H    0.206722
   139  C   -0.133916
   140  H    0.160011
   141  H    0.151297
   142  N   -0.611343
   143  H    0.428015
   144  N   -0.765108
   145  H    0.356352
   146  H    0.365430
   147  N   -0.799412
   148  H    0.332343
   149  H    0.437511
   150  C    0.783854
   151  O   -0.564498
   152  H    0.416765
 Sum of Mulliken charges =   1.00000

 Dipole moment (field-independent basis, Debye):
    X=            -25.0788    Y=              4.5805    Z=             28.9585  Tot=             38.5814
 Quadrupole moment (field-independent basis, Debye-Ang):
   XX=            109.3635   YY=           -410.4207   ZZ=           -243.2050
   XY=             43.8898   XZ=           -283.1381   YZ=             46.8122

 Normal termination of Gaussian 16 at Mon Aug 15 06:25:55 2022.
