 Gaussian 16, Revision C.01,
 Gaussian 16:  ES64L-G16RevC.01  3-Jul-2019

 ----------------------------------------------------------------------
 # B3LYP/6-31G* empiricaldispersion=gd3bj guess=read geom=check nosymm
 integral(ultrafinegrid)
 ----------------------------------------------------------------------

 ------------------------------------------------------
 Candidate Structure: Conf:727 Charge calc in gas phase
 ------------------------------------------------------
 Structure from the checkpoint file:  "conf-727.chk"
 Charge =  1 Multiplicity = 1

                          Input orientation:
 ---------------------------------------------------------------------
 Center     Atomic      Atomic             Coordinates (Angstroms)
 Number     Number       Type             X           Y           Z
 ---------------------------------------------------------------------
      1          7           0       -2.062956   -2.657538    7.435034
      2          1           0       -2.264889   -2.942497    8.395587
      3          1           0       -2.634470   -3.244484    6.750549
      4          1           0       -1.062559   -2.777584    7.255830
      5          6           0       -2.543065   -1.260615    7.101796
      6          1           0       -2.913809   -0.802915    8.022099
      7          6           0       -3.693976   -1.530248    6.102451
      8          6           0       -1.413399   -0.409455    6.480097
      9          1           0       -1.894558    0.531649    6.185686
     10          8           0       -3.850513   -2.692346    5.698296
     11          6           0       -0.328714   -0.086750    7.514973
     12          1           0        0.212980   -0.985192    7.842177
     13          1           0        0.415735    0.583039    7.075971
     14          1           0       -0.742533    0.402447    8.403526
     15          6           0       -0.836925   -1.051961    5.212653
     16          1           0       -0.280303   -1.975781    5.425238
     17          1           0       -1.603626   -1.283375    4.469597
     18          1           0       -0.130611   -0.371979    4.732195
     19          7           0       -4.400499   -0.468039    5.736370
     20          1           0       -4.095847    0.465014    6.015633
     21          6           0       -5.216150   -0.400503    4.518069
     22          1           0       -5.079138   -1.338278    3.972576
     23          6           0       -4.584413    0.786232    3.760428
     24          6           0       -6.714310   -0.190704    4.835605
     25          1           0       -6.788667    0.739905    5.416656
     26          8           0       -4.135675    1.737272    4.412445
     27          6           0       -7.237573   -1.352540    5.699322
     28          1           0       -6.568424   -1.483168    6.558281
     29          1           0       -7.176846   -2.283128    5.118191
     30          6           0       -7.517920   -0.023261    3.539726
     31          1           0       -7.439981   -0.919854    2.911130
     32          1           0       -7.176525    0.833777    2.952819
     33          1           0       -8.576308    0.133172    3.760562
     34          6           0       -8.665398   -1.150853    6.213765
     35          1           0       -8.948492   -1.963154    6.890956
     36          1           0       -8.756634   -0.208109    6.766438
     37          1           0       -9.397752   -1.134182    5.400980
     38          7           0       -4.531380    0.672881    2.429481
     39          1           0       -4.920683   -0.135528    1.947771
     40          6           0       -3.850237    1.595045    1.533745
     41          1           0       -4.373458    2.559946    1.538938
     42          6           0       -3.979019    0.969420    0.128979
     43          6           0       -2.383873    1.869122    1.928681
     44          1           0       -2.408878    2.321284    2.924511
     45          1           0       -1.998853    2.647811    1.259060
     46          8           0       -4.535545   -0.120552   -0.025225
     47          6           0       -1.405341    0.707426    1.924628
     48          6           0       -1.753032   -0.629513    1.697586
     49          1           0       -2.775146   -0.904375    1.473662
     50          6           0       -0.053583    1.005887    2.163419
     51          1           0        0.238110    2.042652    2.318707
     52          6           0       -0.777425   -1.633258    1.715797
     53          1           0       -1.070216   -2.660445    1.514733
     54          6           0        0.919856    0.009909    2.174791
     55          1           0        1.965969    0.267565    2.295114
     56          6           0        0.558428   -1.324428    1.958261
     57          1           0        1.325312   -2.088598    1.906267
     58          7           0       -3.427551    1.691136   -0.863233
     59          1           0       -2.860660    2.502437   -0.628539
     60          6           0       -3.017507    1.106763   -2.134519
     61          1           0       -3.106103    0.020937   -2.047208
     62          6           0       -1.543946    1.514292   -2.299812
     63          6           0       -3.851615    1.620285   -3.321507
     64          1           0       -3.428980    1.202278   -4.245587
     65          1           0       -3.717940    2.708382   -3.378735
     66          8           0       -1.108648    2.527248   -1.743341
     67          6           0       -5.349322    1.282712   -3.247761
     68          1           0       -5.730859    1.667975   -2.292043
     69          6           0       -6.094019    1.997189   -4.382534
     70          1           0       -5.745632    1.644805   -5.361720
     71          1           0       -5.941582    3.082059   -4.343552
     72          1           0       -7.170958    1.805176   -4.325506
     73          6           0       -5.604194   -0.229303   -3.289402
     74          1           0       -5.167891   -0.673710   -4.193844
     75          1           0       -6.680125   -0.435402   -3.307932
     76          1           0       -5.189665   -0.734095   -2.412432
     77          7           0       -0.801629    0.725005   -3.095477
     78          1           0       -1.172997   -0.122411   -3.512566
     79          6           0        0.610637    0.957171   -3.328089
     80          1           0        0.745021    1.984212   -3.693486
     81          6           0        1.049472   -0.034959   -4.407254
     82          6           0        1.472470    0.771671   -2.055151
     83          1           0        1.192008    1.555183   -1.347534
     84          1           0        2.510446    0.941579   -2.336613
     85          8           0        0.332797   -0.972889   -4.739833
     86          6           0        1.377533   -0.603382   -1.392689
     87          1           0        0.458376   -0.676110   -0.799725
     88          1           0        1.320629   -1.401702   -2.138326
     89          6           0        2.560409   -0.924075   -0.450461
     90          8           0        2.739782   -2.137888   -0.178845
     91          8           0        3.236144    0.040394    0.026250
     92          7           0        2.312948    0.152282   -4.924644
     93          1           0        2.912287    0.751259   -4.365452
     94          6           0        3.011158   -1.070762   -5.338381
     95          1           0        2.313835   -1.636469   -5.956928
     96          6           0        3.363466   -1.800581   -4.040454
     97          6           0        4.298197   -0.790593   -6.147520
     98          1           0        4.516434   -1.676587   -6.751091
     99          1           0        4.115345    0.045590   -6.827332
    100          8           0        3.935022   -1.156846   -3.154233
    101          6           0        5.531936   -0.454519   -5.308130
    102          7           0        6.338277   -1.491362   -5.002003
    103          1           0        7.105317   -1.282101   -4.374641
    104          1           0        5.972673   -2.436029   -4.872327
    105          8           0        5.816453    0.713693   -4.991923
    106          7           0        3.053743   -3.099529   -3.921857
    107          1           0        2.533997   -3.571067   -4.648721
    108          6           0        3.413159   -3.805361   -2.694444
    109          1           0        2.843315   -3.377252   -1.864246
    110          6           0        4.906412   -3.577674   -2.427959
    111          6           0        3.133839   -5.316062   -2.801184
    112          1           0        2.052481   -5.470893   -2.911771
    113          1           0        3.628764   -5.711559   -3.695392
    114          8           0        5.751335   -3.745218   -3.320720
    115          6           0        3.677787   -5.987914   -1.561385
    116          6           0        4.878744   -6.703535   -1.609662
    117          1           0        5.342988   -6.901484   -2.571915
    118          6           0        3.113723   -5.718665   -0.309515
    119          1           0        2.203820   -5.128389   -0.241392
    120          6           0        5.520363   -7.118375   -0.446150
    121          1           0        6.461525   -7.657158   -0.481829
    122          6           0        3.745951   -6.122612    0.861000
    123          1           0        3.316313   -5.871170    1.828120
    124          8           0        5.655656   -7.181343    1.914189
    125          1           0        5.235966   -6.771252    2.685906
    126          6           0        4.964993   -6.803747    0.795911
    127          7           0        5.202200   -3.256182   -1.159534
    128          1           0        4.444209   -2.958897   -0.531810
    129          6           0        6.578235   -3.027193   -0.790775
    130          1           0        7.190579   -3.735255   -1.358148
    131          6           0        6.773593   -3.328514    0.683948
    132          6           0        7.037462   -1.598278   -1.162568
    133          1           0        8.129996   -1.540132   -1.089751
    134          1           0        6.762588   -1.471904   -2.214094
    135          8           0        5.910116   -3.612249    1.481456
    136          6           0        6.388508   -0.504947   -0.313316
    137          1           0        5.310298   -0.657040   -0.203106
    138          1           0        6.819253   -0.528508    0.696791
    139          6           0        6.630122    0.900022   -0.868841
    140          1           0        6.335513    1.651974   -0.134197
    141          1           0        7.693879    1.049943   -1.090897
    142          7           0        5.898172    1.214542   -2.104317
    143          1           0        6.240301    0.883045   -3.005246
    144          7           0        4.164342    2.320978   -1.028842
    145          1           0        3.424073    3.000602   -1.155648
    146          1           0        3.831515    1.474020   -0.486097
    147          7           0        4.472024    2.533161   -3.351040
    148          1           0        3.550761    2.933446   -3.447200
    149          1           0        4.933755    2.185772   -4.193882
    150          6           0        4.832019    2.005194   -2.158318
    151          8           0        8.082329   -3.221601    1.020347
    152          1           0        8.137243   -3.431444    1.971297
 ---------------------------------------------------------------------

 SCF Done:  E(RB3LYP) =  -3587.00030847     A.U. after    3 cycles

 Alpha  occ. eigenvalues --  -19.26241 -19.24690 -19.21559 -19.21132 -19.20322
 Alpha  occ. eigenvalues --  -19.20131 -19.20121 -19.19082 -19.18820 -19.18403
 Alpha  occ. eigenvalues --  -19.15933 -19.13020 -19.12126 -14.58981 -14.48516
 Alpha  occ. eigenvalues --  -14.44980 -14.44839 -14.44399 -14.43413 -14.43348
 Alpha  occ. eigenvalues --  -14.43232 -14.42945 -14.41999 -14.41981 -14.39105
 Alpha  occ. eigenvalues --  -10.42692 -10.40283 -10.39537 -10.38177 -10.37271
 Alpha  occ. eigenvalues --  -10.36993 -10.36976 -10.36750 -10.35743 -10.35379
 Alpha  occ. eigenvalues --  -10.33263 -10.33193 -10.32777 -10.32073 -10.31484
 Alpha  occ. eigenvalues --  -10.30871 -10.30636 -10.30066 -10.29958 -10.28872
 Alpha  occ. eigenvalues --  -10.28540 -10.28482 -10.28235 -10.28196 -10.27753
 Alpha  occ. eigenvalues --  -10.27449 -10.26837 -10.26411 -10.26078 -10.25426
 Alpha  occ. eigenvalues --  -10.24949 -10.24887 -10.24880 -10.24756 -10.24536
 Alpha  occ. eigenvalues --  -10.24528 -10.24408 -10.24332 -10.24157 -10.24073
 Alpha  occ. eigenvalues --  -10.24069 -10.22953 -10.22895 -10.22741 -10.22682
 Alpha  occ. eigenvalues --  -10.22653 -10.22173 -10.22130 -10.22002 -10.21787
 Alpha  occ. eigenvalues --   -1.18639  -1.15596  -1.13420  -1.12852  -1.12481
 Alpha  occ. eigenvalues --   -1.11949  -1.11389  -1.10676  -1.10456  -1.09605
 Alpha  occ. eigenvalues --   -1.09075  -1.07497  -1.06570  -1.05587  -1.05488
 Alpha  occ. eigenvalues --   -1.01745  -1.00416  -1.00356  -0.99617  -0.99311
 Alpha  occ. eigenvalues --   -0.98685  -0.97594  -0.97188  -0.96666  -0.96093
 Alpha  occ. eigenvalues --   -0.94389  -0.91779  -0.90431  -0.89445  -0.87869
 Alpha  occ. eigenvalues --   -0.86835  -0.86081  -0.85679  -0.85507  -0.84451
 Alpha  occ. eigenvalues --   -0.83506  -0.82504  -0.81538  -0.80626  -0.80561
 Alpha  occ. eigenvalues --   -0.80342  -0.79763  -0.78664  -0.78504  -0.77812
 Alpha  occ. eigenvalues --   -0.77100  -0.74420  -0.74337  -0.73980  -0.73327
 Alpha  occ. eigenvalues --   -0.73167  -0.73012  -0.72290  -0.71861  -0.70760
 Alpha  occ. eigenvalues --   -0.70636  -0.70305  -0.69688  -0.68988  -0.68133
 Alpha  occ. eigenvalues --   -0.67229  -0.67027  -0.66510  -0.66409  -0.66200
 Alpha  occ. eigenvalues --   -0.66066  -0.65753  -0.65488  -0.65075  -0.64727
 Alpha  occ. eigenvalues --   -0.64672  -0.63790  -0.63593  -0.63100  -0.62961
 Alpha  occ. eigenvalues --   -0.62440  -0.61682  -0.61241  -0.61139  -0.60417
 Alpha  occ. eigenvalues --   -0.59795  -0.58575  -0.58442  -0.58092  -0.57925
 Alpha  occ. eigenvalues --   -0.57839  -0.57586  -0.57431  -0.56906  -0.56882
 Alpha  occ. eigenvalues --   -0.56476  -0.55744  -0.55675  -0.55658  -0.55246
 Alpha  occ. eigenvalues --   -0.54776  -0.54645  -0.54566  -0.54266  -0.53660
 Alpha  occ. eigenvalues --   -0.53460  -0.53246  -0.53167  -0.52864  -0.52619
 Alpha  occ. eigenvalues --   -0.52366  -0.52213  -0.52158  -0.51576  -0.51457
 Alpha  occ. eigenvalues --   -0.51306  -0.51277  -0.51096  -0.50703  -0.50408
 Alpha  occ. eigenvalues --   -0.50166  -0.50063  -0.49914  -0.49733  -0.49611
 Alpha  occ. eigenvalues --   -0.49267  -0.49149  -0.48848  -0.48647  -0.48537
 Alpha  occ. eigenvalues --   -0.48194  -0.47903  -0.47811  -0.47712  -0.47635
 Alpha  occ. eigenvalues --   -0.47511  -0.47454  -0.46946  -0.46873  -0.46742
 Alpha  occ. eigenvalues --   -0.46578  -0.46396  -0.46262  -0.46260  -0.46192
 Alpha  occ. eigenvalues --   -0.46067  -0.45906  -0.45706  -0.45626  -0.45473
 Alpha  occ. eigenvalues --   -0.45420  -0.45105  -0.44909  -0.44418  -0.44300
 Alpha  occ. eigenvalues --   -0.44205  -0.43905  -0.43798  -0.43684  -0.43617
 Alpha  occ. eigenvalues --   -0.43517  -0.43111  -0.42794  -0.42623  -0.42131
 Alpha  occ. eigenvalues --   -0.42077  -0.41914  -0.41349  -0.41141  -0.41002
 Alpha  occ. eigenvalues --   -0.40839  -0.40521  -0.40389  -0.40170  -0.39999
 Alpha  occ. eigenvalues --   -0.39909  -0.39816  -0.39425  -0.39061  -0.38621
 Alpha  occ. eigenvalues --   -0.38315  -0.38183  -0.37916  -0.37755  -0.37658
 Alpha  occ. eigenvalues --   -0.37426  -0.36854  -0.36336  -0.35874  -0.35064
 Alpha  occ. eigenvalues --   -0.34992  -0.34880  -0.34641  -0.34217  -0.33918
 Alpha  occ. eigenvalues --   -0.33740  -0.33567  -0.33470  -0.32866  -0.32581
 Alpha  occ. eigenvalues --   -0.32483  -0.31871  -0.31653  -0.31081  -0.30175
 Alpha  occ. eigenvalues --   -0.30104  -0.29379  -0.28699  -0.28158  -0.27385
 Alpha  occ. eigenvalues --   -0.26290  -0.25413
 Alpha virt. eigenvalues --   -0.11626  -0.10433  -0.07412  -0.06955  -0.06803
 Alpha virt. eigenvalues --   -0.06511  -0.06264  -0.06151  -0.06019  -0.05458
 Alpha virt. eigenvalues --   -0.04960  -0.04419  -0.04325  -0.03551  -0.03136

 Mulliken charges:
               1
     1  N   -0.761092
     2  H    0.413424
     3  H    0.434552
     4  H    0.409649
     5  C   -0.103314
     6  H    0.209336
     7  C    0.650061
     8  C   -0.133705
     9  H    0.192731
    10  O   -0.543533
    11  C   -0.459006
    12  H    0.134373
    13  H    0.198731
    14  H    0.167303
    15  C   -0.485380
    16  H    0.129704
    17  H    0.192502
    18  H    0.209344
    19  N   -0.587446
    20  H    0.369728
    21  C   -0.085843
    22  H    0.184814
    23  C    0.640680
    24  C   -0.072036
    25  H    0.143190
    26  O   -0.559179
    27  C   -0.252687
    28  H    0.127507
    29  H    0.145774
    30  C   -0.477546
    31  H    0.152795
    32  H    0.164235
    33  H    0.174460
    34  C   -0.453133
    35  H    0.156879
    36  H    0.149778
    37  H    0.160770
    38  N   -0.619090
    39  H    0.369596
    40  C   -0.051576
    41  H    0.189595
    42  C    0.626638
    43  C   -0.382871
    44  H    0.201168
    45  H    0.170545
    46  O   -0.540848
    47  C    0.163681
    48  C   -0.207582
    49  H    0.132439
    50  C   -0.193237
    51  H    0.125817
    52  C   -0.152362
    53  H    0.133843
    54  C   -0.140189
    55  H    0.166904
    56  C   -0.146060
    57  H    0.177869
    58  N   -0.596068
    59  H    0.361482
    60  C   -0.086916
    61  H    0.182207
    62  C    0.640730
    63  C   -0.251247
    64  H    0.141650
    65  H    0.146030
    66  O   -0.558452
    67  C   -0.067109
    68  H    0.133141
    69  C   -0.444623
    70  H    0.144156
    71  H    0.142779
    72  H    0.149655
    73  C   -0.467045
    74  H    0.134631
    75  H    0.147576
    76  H    0.172816
    77  N   -0.619955
    78  H    0.360859
    79  C   -0.040517
    80  H    0.161093
    81  C    0.609830
    82  C   -0.295641
    83  H    0.172460
    84  H    0.132346
    85  O   -0.522936
    86  C   -0.372296
    87  H    0.165604
    88  H    0.149140
    89  C    0.667338
    90  O   -0.603268
    91  O   -0.626109
    92  N   -0.591507
    93  H    0.342145
    94  C   -0.079054
    95  H    0.185701
    96  C    0.645785
    97  C   -0.368593
    98  H    0.184132
    99  H    0.196851
   100  O   -0.557170
   101  C    0.603418
   102  N   -0.718613
   103  H    0.344035
   104  H    0.388740
   105  O   -0.572614
   106  N   -0.623417
   107  H    0.342297
   108  C   -0.043252
   109  H    0.230518
   110  C    0.653882
   111  C   -0.389525
   112  H    0.151938
   113  H    0.157536
   114  O   -0.608480
   115  C    0.139233
   116  C   -0.177513
   117  H    0.136510
   118  C   -0.175718
   119  H    0.139312
   120  C   -0.167058
   121  H    0.141339
   122  C   -0.170702
   123  H    0.112607
   124  O   -0.646148
   125  H    0.406902
   126  C    0.357642
   127  N   -0.598273
   128  H    0.411652
   129  C   -0.051462
   130  H    0.199001
   131  C    0.591237
   132  C   -0.278425
   133  H    0.150285
   134  H    0.148157
   135  O   -0.462545
   136  C   -0.299438
   137  H    0.231482
   138  H    0.141030
   139  C   -0.167962
   140  H    0.188224
   141  H    0.159676
   142  N   -0.578353
   143  H    0.377204
   144  N   -0.758205
   145  H    0.332555
   146  H    0.432175
   147  N   -0.776849
   148  H    0.345809
   149  H    0.404633
   150  C    0.720191
   151  O   -0.571280
   152  H    0.412278
 Sum of Mulliken charges =   1.00000

 Dipole moment (field-independent basis, Debye):
    X=             -4.2585    Y=             -2.3220    Z=             18.8123  Tot=             19.4275
 Quadrupole moment (field-independent basis, Debye-Ang):
   XX=           -353.5778   YY=           -425.9334   ZZ=           -191.4147
   XY=             19.9516   XZ=            -75.3928   YZ=            -55.3607

 Normal termination of Gaussian 16 at Mon Aug 15 06:26:30 2022.
