 Gaussian 16, Revision C.01,
 Gaussian 16:  ES64L-G16RevC.01  3-Jul-2019

 ----------------------------------------------------------------------
 # B3LYP/6-31G* empiricaldispersion=gd3 guess=read geom=check nosymm in
 tegral(ultrafinegrid)
 ----------------------------------------------------------------------

 ------------------------------------------------------
 Candidate Structure: Conf:367 Charge calc in gas phase
 ------------------------------------------------------
 Structure from the checkpoint file:  "conf-367.chk"
 Charge =  1 Multiplicity = 1

                          Input orientation:
 ---------------------------------------------------------------------
 Center     Atomic      Atomic             Coordinates (Angstroms)
 Number     Number       Type             X           Y           Z
 ---------------------------------------------------------------------
      1          7           0       -6.757286   -5.064266    0.500874
      2          1           0       -6.650941   -5.707813   -0.283030
      3          1           0       -7.348090   -5.518460    1.195966
      4          1           0       -5.201644   -4.588522    1.186720
      5          6           0       -7.417732   -3.832726    0.012967
      6          1           0       -8.417137   -4.052411   -0.398277
      7          6           0       -6.580479   -3.355430   -1.183665
      8          6           0       -7.557320   -2.826930    1.157522
      9          1           0       -8.116988   -1.939366    0.844388
     10          1           0       -6.574261   -2.528220    1.533455
     11          1           0       -8.115274   -3.280765    1.983567
     12          8           0       -6.103039   -4.187879   -1.971020
     13          7           0       -6.389064   -2.030081   -1.321721
     14          1           0       -6.943750   -1.372307   -0.778602
     15          6           0       -5.719958   -1.463358   -2.494508
     16          1           0       -5.978859   -2.082175   -3.361922
     17          6           0       -4.188819   -1.532727   -2.257070
     18          6           0       -6.139698    0.001076   -2.720178
     19          1           0       -5.782149    0.311644   -3.706685
     20          1           0       -5.618587    0.621540   -1.984744
     21          8           0       -3.541744   -0.523546   -1.956024
     22          6           0       -7.632858    0.242617   -2.530683
     23          7           0       -8.317312    0.711907   -3.602878
     24          1           0       -9.294475    0.943795   -3.482179
     25          1           0       -7.867486    0.966269   -4.469062
     26          8           0       -8.178753    0.024621   -1.447783
     27          7           0       -3.650126   -2.767897   -2.357588
     28          1           0       -4.307054   -3.529511   -2.523424
     29          6           0       -2.344904   -3.104130   -1.765886
     30          1           0       -2.239442   -2.503201   -0.854569
     31          6           0       -1.155595   -2.710788   -2.665385
     32          6           0       -2.272922   -4.586008   -1.386726
     33          1           0       -2.365658   -5.199838   -2.289666
     34          1           0       -1.272834   -4.767921   -0.993033
     35          8           0       -0.296685   -3.527184   -3.022651
     36          6           0       -3.323124   -5.017383   -0.355704
     37          1           0       -3.122772   -6.056089   -0.059456
     38          1           0       -4.326128   -5.014224   -0.786462
     39          6           0       -3.293405   -4.177067    0.920551
     40          8           0       -2.289067   -3.597109    1.294797
     41          8           0       -4.423593   -4.120828    1.626905
     42          7           0       -1.078812   -1.391328   -2.945860
     43          1           0       -1.798322   -0.781816   -2.550414
     44          6           0       -0.005969   -0.815041   -3.752392
     45          1           0        0.280915   -1.571693   -4.490824
     46          6           0        1.207258   -0.570742   -2.831805
     47          6           0       -0.466202    0.470602   -4.443274
     48          1           0        0.345698    0.803552   -5.102783
     49          1           0       -0.578800    1.255091   -3.685797
     50          8           0        1.609510    0.568353   -2.547451
     51          6           0       -1.770700    0.334891   -5.252334
     52          1           0       -2.583701    0.113199   -4.546407
     53          6           0       -2.094479    1.673187   -5.931338
     54          1           0       -1.321361    1.937834   -6.663884
     55          1           0       -2.156367    2.488334   -5.200697
     56          1           0       -3.051248    1.622651   -6.463936
     57          6           0       -1.708318   -0.803557   -6.280154
     58          1           0       -0.863805   -0.664678   -6.967777
     59          1           0       -1.599380   -1.783148   -5.801472
     60          1           0       -2.622719   -0.832978   -6.883631
     61          7           0        1.783774   -1.691257   -2.343582
     62          1           0        1.349260   -2.574188   -2.622588
     63          6           0        2.630703   -1.706923   -1.148233
     64          1           0        2.301272   -0.891312   -0.491071
     65          6           0        4.108556   -1.357462   -1.409582
     66          6           0        2.446853   -3.052746   -0.430127
     67          1           0        2.572246   -3.857993   -1.166846
     68          1           0        3.257461   -3.194232    0.289933
     69          8           0        5.021034   -1.806251   -0.683998
     70          6           0        1.092637   -3.206154    0.289692
     71          1           0        0.297099   -2.978482   -0.428462
     72          6           0        0.902497   -4.658417    0.745404
     73          1           0        1.679261   -4.947762    1.467207
     74          1           0        0.961564   -5.352701   -0.101514
     75          1           0       -0.073204   -4.775605    1.225034
     76          6           0        0.931856   -2.247842    1.479541
     77          1           0        1.643898   -2.500585    2.279108
     78          1           0        1.093066   -1.197480    1.211458
     79          1           0       -0.076814   -2.341647    1.892784
     80          7           0        4.345264   -0.469367   -2.388291
     81          1           0        3.539430    0.014749   -2.774214
     82          6           0        5.669793    0.104589   -2.651468
     83          1           0        6.389251   -0.672027   -2.381671
     84          6           0        5.871809    1.297078   -1.688432
     85          6           0        5.842863    0.446814   -4.147150
     86          1           0        5.785348   -0.523260   -4.662513
     87          8           0        5.732462    2.477063   -2.005621
     88          6           0        7.235613    1.048493   -4.430997
     89          1           0        7.325064    1.164064   -5.518366
     90          1           0        7.278514    2.057938   -4.007001
     91          6           0        4.737249    1.354306   -4.715110
     92          1           0        4.744075    2.329251   -4.223318
     93          1           0        3.735074    0.921763   -4.609117
     94          1           0        4.903258    1.505997   -5.787046
     95          6           0        8.416468    0.215868   -3.916517
     96          1           0        9.364941    0.627470   -4.276868
     97          1           0        8.353763   -0.824479   -4.259742
     98          1           0        8.467594    0.204606   -2.820817
     99          7           0        6.164964    0.928903   -0.408599
    100          1           0        6.162030   -0.055828   -0.159803
    101          6           0        6.210506    1.924957    0.643170
    102          1           0        6.775890    2.774469    0.250167
    103          6           0        6.926097    1.347871    1.860227
    104          6           0        4.798003    2.469430    1.103497
    105          1           0        4.707629    3.509863    0.781591
    106          1           0        4.726646    2.447607    2.194192
    107          8           0        6.838392    0.153178    2.177539
    108          6           0        3.639619    1.651724    0.540353
    109          7           0        3.080924    2.128872   -0.583766
    110          1           0        3.562145    2.845380   -1.112218
    111          1           0        2.404870    1.560880   -1.095010
    112          8           0        3.237500    0.613452    1.092432
    113          7           0        7.624036    2.236285    2.599661
    114          1           0        7.521091    3.213763    2.360305
    115          6           0        7.959476    1.939054    3.987035
    116          1           0        8.489196    0.980813    3.993738
    117          6           0        6.641062    1.782204    4.777486
    118          6           0        8.874208    3.026627    4.603455
    119          1           0        9.031019    2.716450    5.645565
    120          8           0        5.590962    2.277528    4.374252
    121          6           0       10.238259    3.060036    3.900810
    122          1           0       10.134896    3.348468    2.848569
    123          1           0       10.898410    3.788017    4.383379
    124          1           0       10.730662    2.081597    3.932530
    125          6           0        8.214060    4.415274    4.627213
    126          1           0        8.122927    4.842010    3.619323
    127          1           0        8.831576    5.110924    5.203579
    128          1           0        7.215296    4.390983    5.073566
    129          7           0        6.731734    1.071751    5.930224
    130          1           0        7.616650    0.671023    6.210609
    131          6           0        5.544369    0.737283    6.705982
    132          1           0        4.795874    1.494178    6.458505
    133          6           0        5.774288    0.805284    8.208185
    134          6           0        4.963193   -0.657696    6.346626
    135          1           0        3.961391   -0.716719    6.785508
    136          1           0        5.562407   -1.446358    6.821997
    137          8           0        4.882389    0.716663    9.016587
    138          6           0        4.929745   -0.889862    4.832253
    139          1           0        5.962691   -0.981053    4.473420
    140          1           0        4.519161   -0.002828    4.336879
    141          6           0        4.127221   -2.130728    4.414278
    142          1           0        4.285122   -2.954017    5.122087
    143          1           0        3.053112   -1.906579    4.433221
    144          6           0        4.526152   -2.645903    3.029825
    145          1           0        5.513479   -3.116327    3.055622
    146          1           0        3.808989   -3.378511    2.652219
    147          7           0        4.618844   -1.541654    2.024680
    148          1           0        4.724940   -1.881173    1.043242
    149          1           0        5.443823   -0.928620    2.181809
    150          1           0        3.815942   -0.889358    1.999629
    151          8           0        7.084419    0.911900    8.539191
    152          1           0        7.129141    0.910501    9.514794
 ---------------------------------------------------------------------

 SCF Done:  E(RB3LYP) =  -3474.07741652     A.U. after    2 cycles

 Alpha  occ. eigenvalues --  -19.28071 -19.23281 -19.22122 -19.22031 -19.21763
 Alpha  occ. eigenvalues --  -19.21257 -19.20769 -19.20715 -19.20477 -19.20217
 Alpha  occ. eigenvalues --  -19.20208 -19.19392 -19.19359 -19.17745 -14.49909
 Alpha  occ. eigenvalues --  -14.46502 -14.45436 -14.44952 -14.44521 -14.44133
 Alpha  occ. eigenvalues --  -14.44044 -14.43843 -14.43604 -14.42932 -14.42793
 Alpha  occ. eigenvalues --  -14.41680 -10.40177 -10.39831 -10.38383 -10.37980
 Alpha  occ. eigenvalues --  -10.37882 -10.37470 -10.37262 -10.37231 -10.37025
 Alpha  occ. eigenvalues --  -10.37001 -10.36392 -10.36046 -10.33610 -10.33272
 Alpha  occ. eigenvalues --  -10.32712 -10.32419 -10.32366 -10.31669 -10.31162
 Alpha  occ. eigenvalues --  -10.30883 -10.30751 -10.30275 -10.28938 -10.28393
 Alpha  occ. eigenvalues --  -10.28229 -10.27892 -10.27723 -10.27196 -10.26389
 Alpha  occ. eigenvalues --  -10.26353 -10.25923 -10.25641 -10.25467 -10.25453
 Alpha  occ. eigenvalues --  -10.25419 -10.25226 -10.25098 -10.25096 -10.24115
 Alpha  occ. eigenvalues --  -10.23585 -10.23539 -10.23351 -10.23280 -10.23206
 Alpha  occ. eigenvalues --  -10.22937  -1.18669  -1.15003  -1.13532  -1.13412
 Alpha  occ. eigenvalues --   -1.12690  -1.12612  -1.12455  -1.12112  -1.11692
 Alpha  occ. eigenvalues --   -1.11637  -1.11117  -1.10781  -1.09699  -1.06078
 Alpha  occ. eigenvalues --   -1.05247  -1.03141  -1.02012  -1.01904  -1.01250
 Alpha  occ. eigenvalues --   -1.01023  -1.00690  -1.00224  -0.99317  -0.98445
 Alpha  occ. eigenvalues --   -0.98427  -0.97800  -0.90437  -0.89327  -0.88743
 Alpha  occ. eigenvalues --   -0.88039  -0.87647  -0.87047  -0.86494  -0.85872
 Alpha  occ. eigenvalues --   -0.85851  -0.83673  -0.81955  -0.81653  -0.81317
 Alpha  occ. eigenvalues --   -0.80117  -0.79679  -0.79006  -0.78422  -0.76827
 Alpha  occ. eigenvalues --   -0.76101  -0.75720  -0.74354  -0.74219  -0.73812
 Alpha  occ. eigenvalues --   -0.73183  -0.71992  -0.71920  -0.70435  -0.69973
 Alpha  occ. eigenvalues --   -0.69384  -0.69045  -0.68194  -0.68143  -0.68026
 Alpha  occ. eigenvalues --   -0.67869  -0.67328  -0.66861  -0.66632  -0.66400
 Alpha  occ. eigenvalues --   -0.66118  -0.65803  -0.65118  -0.64951  -0.64675
 Alpha  occ. eigenvalues --   -0.64311  -0.63745  -0.63248  -0.62685  -0.62423
 Alpha  occ. eigenvalues --   -0.62015  -0.61601  -0.61007  -0.60325  -0.60024
 Alpha  occ. eigenvalues --   -0.59418  -0.59270  -0.59057  -0.58898  -0.58429
 Alpha  occ. eigenvalues --   -0.57941  -0.57643  -0.57047  -0.56952  -0.56841
 Alpha  occ. eigenvalues --   -0.56504  -0.56283  -0.55997  -0.55930  -0.55509
 Alpha  occ. eigenvalues --   -0.55478  -0.54978  -0.54820  -0.54530  -0.54219
 Alpha  occ. eigenvalues --   -0.53940  -0.53510  -0.53138  -0.52908  -0.52702
 Alpha  occ. eigenvalues --   -0.52575  -0.52148  -0.52039  -0.51888  -0.51757
 Alpha  occ. eigenvalues --   -0.51282  -0.51062  -0.50755  -0.50684  -0.50403
 Alpha  occ. eigenvalues --   -0.50039  -0.49989  -0.49725  -0.49681  -0.49551
 Alpha  occ. eigenvalues --   -0.49353  -0.49018  -0.48945  -0.48843  -0.48722
 Alpha  occ. eigenvalues --   -0.48519  -0.48308  -0.48202  -0.47995  -0.47695
 Alpha  occ. eigenvalues --   -0.47552  -0.47487  -0.47191  -0.47119  -0.47028
 Alpha  occ. eigenvalues --   -0.46966  -0.46782  -0.46456  -0.46390  -0.46175
 Alpha  occ. eigenvalues --   -0.45977  -0.45877  -0.45798  -0.45669  -0.45502
 Alpha  occ. eigenvalues --   -0.45296  -0.45029  -0.44942  -0.44752  -0.44706
 Alpha  occ. eigenvalues --   -0.44389  -0.44332  -0.44288  -0.43933  -0.43590
 Alpha  occ. eigenvalues --   -0.43437  -0.43136  -0.43067  -0.42900  -0.42741
 Alpha  occ. eigenvalues --   -0.42690  -0.42386  -0.42248  -0.42127  -0.41997
 Alpha  occ. eigenvalues --   -0.41883  -0.41804  -0.41236  -0.39986  -0.39816
 Alpha  occ. eigenvalues --   -0.39760  -0.39520  -0.39395  -0.39121  -0.39071
 Alpha  occ. eigenvalues --   -0.38803  -0.38736  -0.38618  -0.38486  -0.37684
 Alpha  occ. eigenvalues --   -0.37305  -0.36844  -0.36632  -0.36382  -0.36316
 Alpha  occ. eigenvalues --   -0.36003  -0.35639  -0.35573  -0.35283  -0.35132
 Alpha  occ. eigenvalues --   -0.34661  -0.34656  -0.34435  -0.33973  -0.33811
 Alpha  occ. eigenvalues --   -0.33451  -0.33351  -0.33303  -0.32448  -0.32371
 Alpha  occ. eigenvalues --   -0.32097  -0.31679  -0.31275
 Alpha virt. eigenvalues --   -0.09671  -0.08608  -0.07752  -0.07354  -0.07329
 Alpha virt. eigenvalues --   -0.06802  -0.06104  -0.06013  -0.05863  -0.05197
 Alpha virt. eigenvalues --   -0.04966  -0.03626  -0.02559  -0.02027  -0.01760

 Mulliken charges:
               1
     1  N   -0.773581
     2  H    0.345882
     3  H    0.332992
     4  H    0.472297
     5  C   -0.062041
     6  H    0.175750
     7  C    0.636491
     8  C   -0.491634
     9  H    0.182857
    10  H    0.192804
    11  H    0.163780
    12  O   -0.561103
    13  N   -0.616523
    14  H    0.391168
    15  C   -0.059049
    16  H    0.188499
    17  C    0.647994
    18  C   -0.396110
    19  H    0.161947
    20  H    0.221794
    21  O   -0.549414
    22  C    0.614919
    23  N   -0.740839
    24  H    0.358700
    25  H    0.350434
    26  O   -0.524583
    27  N   -0.622757
    28  H    0.383080
    29  C   -0.077648
    30  H    0.213100
    31  C    0.635807
    32  C   -0.293816
    33  H    0.161760
    34  H    0.191290
    35  O   -0.559835
    36  C   -0.427034
    37  H    0.181995
    38  H    0.180220
    39  C    0.604419
    40  O   -0.478972
    41  O   -0.611245
    42  N   -0.625533
    43  H    0.396468
    44  C   -0.076439
    45  H    0.188622
    46  C    0.628225
    47  C   -0.279332
    48  H    0.149268
    49  H    0.161276
    50  O   -0.568760
    51  C   -0.079519
    52  H    0.128883
    53  C   -0.443698
    54  H    0.147689
    55  H    0.146904
    56  H    0.140589
    57  C   -0.455869
    58  H    0.145297
    59  H    0.154324
    60  H    0.146203
    61  N   -0.617239
    62  H    0.393841
    63  C   -0.088269
    64  H    0.219009
    65  C    0.647740
    66  C   -0.301706
    67  H    0.161224
    68  H    0.129463
    69  O   -0.591897
    70  C   -0.077083
    71  H    0.143539
    72  C   -0.464909
    73  H    0.123239
    74  H    0.147886
    75  H    0.185759
    76  C   -0.493573
    77  H    0.112191
    78  H    0.159282
    79  H    0.204152
    80  N   -0.620494
    81  H    0.394709
    82  C   -0.075380
    83  H    0.187092
    84  C    0.635641
    85  C   -0.077454
    86  H    0.138585
    87  O   -0.542853
    88  C   -0.268494
    89  H    0.145005
    90  H    0.165466
    91  C   -0.485452
    92  H    0.184581
    93  H    0.136665
    94  H    0.156679
    95  C   -0.460226
    96  H    0.160060
    97  H    0.149493
    98  H    0.137847
    99  N   -0.634159
   100  H    0.364711
   101  C   -0.026131
   102  H    0.191174
   103  C    0.635989
   104  C   -0.411107
   105  H    0.177176
   106  H    0.235918
   107  O   -0.568076
   108  C    0.602714
   109  N   -0.748905
   110  H    0.364183
   111  H    0.400356
   112  O   -0.576977
   113  N   -0.581237
   114  H    0.352158
   115  C   -0.059036
   116  H    0.175888
   117  C    0.651415
   118  C   -0.111812
   119  H    0.151119
   120  O   -0.540789
   121  C   -0.443305
   122  H    0.152839
   123  H    0.167973
   124  H    0.154046
   125  C   -0.472854
   126  H    0.140160
   127  H    0.173569
   128  H    0.178753
   129  N   -0.606761
   130  H    0.347115
   131  C   -0.064745
   132  H    0.221893
   133  C    0.593473
   134  C   -0.275333
   135  H    0.184215
   136  H    0.149452
   137  O   -0.442264
   138  C   -0.304479
   139  H    0.150453
   140  H    0.177313
   141  C   -0.287948
   142  H    0.169485
   143  H    0.176281
   144  C   -0.179322
   145  H    0.189787
   146  H    0.199717
   147  N   -0.854858
   148  H    0.439535
   149  H    0.440357
   150  H    0.430685
   151  O   -0.578946
   152  H    0.426624
 Sum of Mulliken charges =   1.00000

 Dipole moment (field-independent basis, Debye):
    X=              9.2707    Y=             -2.7288    Z=              1.8231  Tot=              9.8344
 Quadrupole moment (field-independent basis, Debye-Ang):
   XX=           -148.4186   YY=           -375.9844   ZZ=           -329.7949
   XY=             49.7813   XZ=            122.9220   YZ=             -5.3610

 Normal termination of Gaussian 16 at Mon Jul  4 20:52:49 2022.
