 Gaussian 16, Revision C.01,
 Gaussian 16:  ES64L-G16RevC.01  3-Jul-2019

 ----------------------------------------------------------------------
 # B3LYP/6-31G* empiricaldispersion=gd3 guess=read geom=check nosymm in
 tegral(ultrafinegrid)
 ----------------------------------------------------------------------

 ------------------------------------------------------
 Candidate Structure: Conf:137 Charge calc in gas phase
 ------------------------------------------------------
 Structure from the checkpoint file:  "conf-137.chk"
 Charge =  1 Multiplicity = 1

                          Input orientation:
 ---------------------------------------------------------------------
 Center     Atomic      Atomic             Coordinates (Angstroms)
 Number     Number       Type             X           Y           Z
 ---------------------------------------------------------------------
      1          7           0       -5.341748   -2.714218    2.473214
      2          1           0       -4.491696   -2.570384    3.018946
      3          1           0       -6.132339   -2.640776    3.111389
      4          1           0       -5.425094   -1.461825    1.279244
      5          6           0       -5.302660   -4.076338    1.891445
      6          1           0       -5.568565   -4.829317    2.651055
      7          6           0       -3.840433   -4.395505    1.506475
      8          6           0       -6.303899   -4.168825    0.733084
      9          1           0       -6.425924   -5.197119    0.376873
     10          1           0       -5.999804   -3.528458   -0.099966
     11          1           0       -7.289795   -3.835046    1.072313
     12          8           0       -2.905468   -3.781387    2.024132
     13          7           0       -3.653762   -5.430609    0.639927
     14          1           0       -4.437698   -5.693081    0.054676
     15          6           0       -2.338271   -5.710510    0.043687
     16          1           0       -1.585425   -5.470520    0.793892
     17          6           0       -2.266488   -4.774100   -1.183712
     18          6           0       -2.225236   -7.185090   -0.349132
     19          1           0       -2.908039   -7.389847   -1.184762
     20          1           0       -2.518772   -7.817924    0.494598
     21          8           0       -3.124102   -4.844051   -2.055173
     22          6           0       -0.805937   -7.491482   -0.814343
     23          7           0       -0.353476   -8.740213   -0.591488
     24          1           0        0.590314   -8.969904   -0.873973
     25          1           0       -0.870274   -9.418431   -0.051527
     26          8           0       -0.131740   -6.638634   -1.403348
     27          7           0       -1.333077   -3.780395   -1.119284
     28          1           0       -0.717772   -3.784357   -0.316938
     29          6           0       -1.656124   -2.438387   -1.610662
     30          1           0       -1.960766   -2.509008   -2.658402
     31          6           0       -0.370788   -1.630144   -1.442144
     32          6           0       -2.793209   -1.920895   -0.724924
     33          1           0       -3.625635   -2.617432   -0.842455
     34          1           0       -2.435038   -2.032040    0.302579
     35          8           0        0.089237   -1.421091   -0.300418
     36          6           0       -3.346385   -0.492384   -0.903502
     37          1           0       -3.983981   -0.419293   -1.788705
     38          1           0       -2.558283    0.261764   -0.954080
     39          6           0       -4.137989   -0.336034    0.378480
     40          8           0       -3.687941    0.210497    1.383326
     41          8           0       -5.261768   -1.037585    0.363810
     42          7           0        0.239657   -1.235170   -2.563622
     43          1           0       -0.197944   -1.454880   -3.448886
     44          6           0        1.594469   -0.670452   -2.609945
     45          1           0        2.117427   -1.060482   -1.731518
     46          6           0        1.511790    0.870642   -2.491681
     47          6           0        2.312298   -1.096971   -3.895100
     48          1           0        3.358979   -0.783650   -3.795131
     49          1           0        1.907278   -0.507365   -4.725804
     50          8           0        1.736079    1.611879   -3.436666
     51          6           0        2.249744   -2.600766   -4.231676
     52          1           0        1.198167   -2.876474   -4.407868
     53          6           0        3.011029   -2.861701   -5.539501
     54          1           0        4.075389   -2.622192   -5.422594
     55          1           0        2.619363   -2.252179   -6.362064
     56          1           0        2.935870   -3.914649   -5.832200
     57          6           0        2.779113   -3.495103   -3.103400
     58          1           0        3.840410   -3.294658   -2.916170
     59          1           0        2.238013   -3.360320   -2.161308
     60          1           0        2.687746   -4.552047   -3.377570
     61          7           0        1.104259    1.315036   -1.262801
     62          1           0        1.173748    0.667550   -0.482620
     63          6           0        1.257806    2.715854   -0.925241
     64          1           0        1.096049    3.288052   -1.843012
     65          6           0        2.706115    2.936010   -0.440284
     66          6           0        0.251143    3.140606    0.165905
     67          1           0        0.574927    2.713598    1.120939
     68          1           0        0.285472    4.233555    0.272602
     69          8           0        3.496111    2.005007   -0.335049
     70          6           0       -1.201765    2.704945   -0.085810
     71          1           0       -1.203139    1.606327   -0.084232
     72          6           0       -2.101380    3.186860    1.061721
     73          1           0       -2.158167    4.283705    1.072576
     74          1           0       -1.724661    2.853779    2.036239
     75          1           0       -3.118430    2.798257    0.952994
     76          6           0       -1.733797    3.169791   -1.446275
     77          1           0       -1.703844    4.264299   -1.523822
     78          1           0       -1.152397    2.754100   -2.275950
     79          1           0       -2.776948    2.861132   -1.579970
     80          7           0        3.035064    4.187346    0.001613
     81          1           0        2.453195    4.980073   -0.230682
     82          6           0        4.329124    4.400510    0.655462
     83          1           0        5.122785    4.070757   -0.018547
     84          6           0        4.453179    3.468405    1.878662
     85          6           0        4.539000    5.893647    1.008720
     86          1           0        4.487315    6.431955    0.050067
     87          8           0        5.516613    2.963616    2.208312
     88          6           0        5.935175    6.148555    1.614686
     89          1           0        6.020750    7.229801    1.781567
     90          1           0        5.987511    5.678316    2.605252
     91          6           0        3.447597    6.452762    1.938248
     92          1           0        3.494244    5.971711    2.922117
     93          1           0        2.433409    6.312608    1.543138
     94          1           0        3.592671    7.527670    2.084218
     95          6           0        7.114112    5.664779    0.763109
     96          1           0        8.057724    6.040833    1.171456
     97          1           0        7.034506    6.021385   -0.271539
     98          1           0        7.173551    4.572488    0.752610
     99          7           0        3.282562    3.269798    2.584672
    100          1           0        2.446072    3.556977    2.089854
    101          6           0        3.134981    2.053239    3.380251
    102          1           0        4.090496    1.897385    3.885632
    103          6           0        2.866615    0.889060    2.407922
    104          6           0        2.051835    2.188799    4.469642
    105          1           0        2.435093    2.872175    5.235837
    106          1           0        1.893669    1.213043    4.934519
    107          8           0        1.732374    0.688746    1.937142
    108          6           0        0.691399    2.691727    3.998165
    109          7           0        0.620541    4.018782    3.715630
    110          1           0        1.375109    4.653120    3.938026
    111          1           0       -0.281002    4.408769    3.472413
    112          8           0       -0.293874    1.959885    3.874889
    113          7           0        3.952334    0.182012    2.076611
    114          1           0        4.844526    0.461644    2.463359
    115          6           0        3.943003   -0.895038    1.088012
    116          1           0        3.274002   -0.582453    0.280059
    117          6           0        3.435763   -2.161714    1.805867
    118          6           0        5.362889   -1.138521    0.530768
    119          1           0        5.972054   -1.475889    1.380955
    120          8           0        4.024987   -2.585420    2.793756
    121          6           0        5.320424   -2.264808   -0.510877
    122          1           0        4.715588   -1.959485   -1.373278
    123          1           0        6.329368   -2.483236   -0.874910
    124          1           0        4.896594   -3.192194   -0.112524
    125          6           0        5.984199    0.126594   -0.079611
    126          1           0        5.395065    0.473223   -0.934152
    127          1           0        6.999690   -0.096572   -0.425069
    128          1           0        6.044687    0.961938    0.624140
    129          7           0        2.323910   -2.746510    1.277344
    130          1           0        1.791115   -2.250371    0.570229
    131          6           0        1.643256   -3.810982    1.994120
    132          1           0        2.356564   -4.199358    2.726658
    133          6           0        1.211768   -4.972845    1.107489
    134          6           0        0.385377   -3.290797    2.733777
    135          1           0       -0.065828   -4.125053    3.279861
    136          1           0       -0.352565   -2.992827    1.978398
    137          8           0        0.652004   -5.955871    1.559198
    138          6           0        0.699661   -2.119809    3.669008
    139          1           0        1.233947   -1.345925    3.110445
    140          1           0        1.388187   -2.452931    4.454194
    141          6           0       -0.538007   -1.482265    4.316200
    142          1           0       -1.023486   -2.191905    4.998076
    143          1           0       -0.225772   -0.621038    4.918286
    144          6           0       -1.608371   -1.023023    3.327804
    145          1           0       -2.101251   -1.862037    2.836620
    146          1           0       -2.370470   -0.421982    3.828340
    147          7           0       -1.055743   -0.141965    2.238104
    148          1           0       -1.869416    0.253433    1.730675
    149          1           0       -0.468956   -0.645558    1.559216
    150          1           0       -0.496026    0.624285    2.653567
    151          8           0        1.413325   -4.765752   -0.201219
    152          1           0        1.001080   -5.520305   -0.702974
 ---------------------------------------------------------------------

 SCF Done:  E(RB3LYP) =  -3474.09131793     A.U. after    1 cycles

 Alpha  occ. eigenvalues --  -19.26184 -19.25691 -19.23696 -19.22942 -19.22658
 Alpha  occ. eigenvalues --  -19.22515 -19.21316 -19.21100 -19.20946 -19.20778
 Alpha  occ. eigenvalues --  -19.20657 -19.20486 -19.19561 -19.17997 -14.50271
 Alpha  occ. eigenvalues --  -14.47646 -14.46716 -14.46365 -14.45341 -14.45238
 Alpha  occ. eigenvalues --  -14.44978 -14.44977 -14.44566 -14.43956 -14.43182
 Alpha  occ. eigenvalues --  -14.42776 -10.40881 -10.40341 -10.40202 -10.39399
 Alpha  occ. eigenvalues --  -10.39218 -10.39027 -10.37968 -10.37585 -10.37541
 Alpha  occ. eigenvalues --  -10.37375 -10.36519 -10.35284 -10.33541 -10.33527
 Alpha  occ. eigenvalues --  -10.33324 -10.32702 -10.32130 -10.31782 -10.31556
 Alpha  occ. eigenvalues --  -10.31446 -10.30665 -10.30326 -10.30141 -10.29242
 Alpha  occ. eigenvalues --  -10.28850 -10.28551 -10.28191 -10.27685 -10.27456
 Alpha  occ. eigenvalues --  -10.27316 -10.27235 -10.26458 -10.26405 -10.26069
 Alpha  occ. eigenvalues --  -10.26004 -10.25886 -10.25883 -10.25124 -10.24915
 Alpha  occ. eigenvalues --  -10.24879 -10.23669 -10.23434 -10.23399 -10.23172
 Alpha  occ. eigenvalues --  -10.22558  -1.17930  -1.17433  -1.15021  -1.14322
 Alpha  occ. eigenvalues --   -1.14289  -1.13508  -1.12872  -1.12611  -1.12295
 Alpha  occ. eigenvalues --   -1.12142  -1.11282  -1.10121  -1.09331  -1.08344
 Alpha  occ. eigenvalues --   -1.05872  -1.03766  -1.02736  -1.02601  -1.01894
 Alpha  occ. eigenvalues --   -1.01538  -1.01355  -1.00424  -1.00215  -1.00021
 Alpha  occ. eigenvalues --   -1.00001  -0.99578  -0.90155  -0.89784  -0.89088
 Alpha  occ. eigenvalues --   -0.88676  -0.88434  -0.88082  -0.88062  -0.86985
 Alpha  occ. eigenvalues --   -0.84805  -0.84243  -0.84203  -0.83150  -0.81497
 Alpha  occ. eigenvalues --   -0.80427  -0.79954  -0.79228  -0.78348  -0.77499
 Alpha  occ. eigenvalues --   -0.76076  -0.75601  -0.74733  -0.74331  -0.74110
 Alpha  occ. eigenvalues --   -0.73908  -0.73436  -0.73066  -0.71875  -0.70665
 Alpha  occ. eigenvalues --   -0.70239  -0.69733  -0.69048  -0.68589  -0.68320
 Alpha  occ. eigenvalues --   -0.68124  -0.67704  -0.67326  -0.67235  -0.67152
 Alpha  occ. eigenvalues --   -0.66512  -0.66402  -0.65627  -0.65250  -0.64906
 Alpha  occ. eigenvalues --   -0.64695  -0.64512  -0.64418  -0.64353  -0.63691
 Alpha  occ. eigenvalues --   -0.63104  -0.63054  -0.61929  -0.61777  -0.61109
 Alpha  occ. eigenvalues --   -0.59964  -0.59892  -0.59687  -0.59125  -0.58870
 Alpha  occ. eigenvalues --   -0.58599  -0.58213  -0.57802  -0.57593  -0.57375
 Alpha  occ. eigenvalues --   -0.56847  -0.56728  -0.56285  -0.56143  -0.55747
 Alpha  occ. eigenvalues --   -0.55614  -0.55425  -0.55333  -0.55109  -0.54845
 Alpha  occ. eigenvalues --   -0.54658  -0.54155  -0.54050  -0.53902  -0.53726
 Alpha  occ. eigenvalues --   -0.53528  -0.53110  -0.52801  -0.52523  -0.52171
 Alpha  occ. eigenvalues --   -0.51883  -0.51817  -0.51596  -0.51298  -0.51219
 Alpha  occ. eigenvalues --   -0.50985  -0.50645  -0.50587  -0.50305  -0.50218
 Alpha  occ. eigenvalues --   -0.49986  -0.49952  -0.49755  -0.49492  -0.49429
 Alpha  occ. eigenvalues --   -0.49223  -0.48958  -0.48917  -0.48894  -0.48486
 Alpha  occ. eigenvalues --   -0.48223  -0.48104  -0.47966  -0.47927  -0.47827
 Alpha  occ. eigenvalues --   -0.47668  -0.47572  -0.47380  -0.47236  -0.46677
 Alpha  occ. eigenvalues --   -0.46615  -0.46529  -0.46392  -0.46162  -0.46032
 Alpha  occ. eigenvalues --   -0.45976  -0.45874  -0.45781  -0.45481  -0.45309
 Alpha  occ. eigenvalues --   -0.44896  -0.44725  -0.44555  -0.44373  -0.44275
 Alpha  occ. eigenvalues --   -0.44143  -0.44083  -0.43948  -0.43757  -0.43649
 Alpha  occ. eigenvalues --   -0.43401  -0.43318  -0.42823  -0.41687  -0.41283
 Alpha  occ. eigenvalues --   -0.41107  -0.41013  -0.40734  -0.40547  -0.40332
 Alpha  occ. eigenvalues --   -0.40078  -0.40022  -0.39827  -0.39714  -0.39613
 Alpha  occ. eigenvalues --   -0.39454  -0.39425  -0.39200  -0.38865  -0.38656
 Alpha  occ. eigenvalues --   -0.38116  -0.37993  -0.37573  -0.37524  -0.37240
 Alpha  occ. eigenvalues --   -0.37084  -0.36498  -0.36484  -0.36260  -0.36060
 Alpha  occ. eigenvalues --   -0.35830  -0.35307  -0.35286  -0.35225  -0.34580
 Alpha  occ. eigenvalues --   -0.34528  -0.33810  -0.33408  -0.33000  -0.32811
 Alpha  occ. eigenvalues --   -0.32227  -0.32121  -0.31097
 Alpha virt. eigenvalues --   -0.09923  -0.09534  -0.09393  -0.08493  -0.08222
 Alpha virt. eigenvalues --   -0.07192  -0.07142  -0.06720  -0.06413  -0.06095
 Alpha virt. eigenvalues --   -0.05891  -0.04711  -0.03792  -0.03288  -0.02402

 Mulliken charges:
               1
     1  N   -0.781521
     2  H    0.350186
     3  H    0.336949
     4  H    0.460219
     5  C   -0.062031
     6  H    0.180993
     7  C    0.630498
     8  C   -0.479938
     9  H    0.159369
    10  H    0.196985
    11  H    0.174948
    12  O   -0.535973
    13  N   -0.606139
    14  H    0.352307
    15  C   -0.075251
    16  H    0.208290
    17  C    0.645960
    18  C   -0.388372
    19  H    0.205705
    20  H    0.172955
    21  O   -0.529361
    22  C    0.667636
    23  N   -0.734742
    24  H    0.362771
    25  H    0.357866
    26  O   -0.563084
    27  N   -0.612243
    28  H    0.367551
    29  C   -0.050562
    30  H    0.181144
    31  C    0.647274
    32  C   -0.326570
    33  H    0.195982
    34  H    0.170124
    35  O   -0.597486
    36  C   -0.353725
    37  H    0.184780
    38  H    0.180467
    39  C    0.582883
    40  O   -0.508020
    41  O   -0.580182
    42  N   -0.581318
    43  H    0.357044
    44  C   -0.102875
    45  H    0.188100
    46  C    0.644916
    47  C   -0.290592
    48  H    0.166413
    49  H    0.170936
    50  O   -0.507841
    51  C   -0.083707
    52  H    0.110809
    53  C   -0.442991
    54  H    0.150367
    55  H    0.149310
    56  H    0.153472
    57  C   -0.471136
    58  H    0.155154
    59  H    0.159212
    60  H    0.154512
    61  N   -0.620505
    62  H    0.371085
    63  C   -0.074887
    64  H    0.198894
    65  C    0.628509
    66  C   -0.306175
    67  H    0.161081
    68  H    0.121987
    69  O   -0.512145
    70  C   -0.076057
    71  H    0.118652
    72  C   -0.479654
    73  H    0.135493
    74  H    0.148824
    75  H    0.168706
    76  C   -0.459691
    77  H    0.146160
    78  H    0.165788
    79  H    0.149920
    80  N   -0.663466
    81  H    0.341100
    82  C   -0.001419
    83  H    0.203793
    84  C    0.631230
    85  C   -0.128007
    86  H    0.147621
    87  O   -0.521657
    88  C   -0.255624
    89  H    0.146320
    90  H    0.153095
    91  C   -0.471097
    92  H    0.151209
    93  H    0.122156
    94  H    0.173668
    95  C   -0.466672
    96  H    0.159780
    97  H    0.144246
    98  H    0.175247
    99  N   -0.617469
   100  H    0.357929
   101  C   -0.076668
   102  H    0.194983
   103  C    0.668734
   104  C   -0.372158
   105  H    0.182799
   106  H    0.199000
   107  O   -0.603701
   108  C    0.613136
   109  N   -0.736949
   110  H    0.363240
   111  H    0.365925
   112  O   -0.544546
   113  N   -0.574972
   114  H    0.365127
   115  C   -0.035531
   116  H    0.165073
   117  C    0.627936
   118  C   -0.127374
   119  H    0.159152
   120  O   -0.531253
   121  C   -0.468272
   122  H    0.141188
   123  H    0.161862
   124  H    0.167780
   125  C   -0.460971
   126  H    0.160840
   127  H    0.148766
   128  H    0.168175
   129  N   -0.626266
   130  H    0.375254
   131  C   -0.072836
   132  H    0.217927
   133  C    0.584103
   134  C   -0.285521
   135  H    0.178252
   136  H    0.137165
   137  O   -0.486007
   138  C   -0.310404
   139  H    0.164312
   140  H    0.167638
   141  C   -0.280941
   142  H    0.159326
   143  H    0.165193
   144  C   -0.214766
   145  H    0.230002
   146  H    0.192306
   147  N   -0.856489
   148  H    0.435341
   149  H    0.436031
   150  H    0.461573
   151  O   -0.596887
   152  H    0.467974
 Sum of Mulliken charges =   1.00000

 Dipole moment (field-independent basis, Debye):
    X=             -5.7592    Y=             -3.8130    Z=              6.9716  Tot=              9.8138
 Quadrupole moment (field-independent basis, Debye-Ang):
   XX=           -369.9989   YY=           -258.1412   ZZ=           -389.9070
   XY=             62.5152   XZ=            -19.0172   YZ=             21.2986

 Normal termination of Gaussian 16 at Mon Jul  4 20:52:48 2022.
