 Gaussian 16, Revision C.01,
 Gaussian 16:  ES64L-G16RevC.01  3-Jul-2019

 ----------------------------------------------------------------------
 # B3LYP/6-31G* empiricaldispersion=gd3 guess=read geom=check nosymm in
 tegral(ultrafinegrid)
 ----------------------------------------------------------------------

 ------------------------------------------------------
 Candidate Structure: Conf:883 Charge calc in gas phase
 ------------------------------------------------------
 Structure from the checkpoint file:  "conf-883.chk"
 Charge =  1 Multiplicity = 1

                          Input orientation:
 ---------------------------------------------------------------------
 Center     Atomic      Atomic             Coordinates (Angstroms)
 Number     Number       Type             X           Y           Z
 ---------------------------------------------------------------------
      1          7           0       -5.499674    0.912626  -10.847812
      2          1           0       -4.499010    0.963915  -11.053300
      3          1           0       -5.991471    1.610973  -11.407073
      4          1           0       -5.815104   -0.041291  -11.097854
      5          6           0       -5.778417    1.047665   -9.384743
      6          1           0       -5.110893    1.797711   -8.954378
      7          6           0       -5.476103   -0.342237   -8.802137
      8          6           0       -7.236179    1.423976   -9.141468
      9          1           0       -7.421871    1.526527   -8.070131
     10          1           0       -7.897660    0.643038   -9.529338
     11          1           0       -7.487193    2.373078   -9.625818
     12          8           0       -5.601567   -1.328765   -9.542686
     13          7           0       -5.122901   -0.388167   -7.518007
     14          1           0       -5.136294    0.420479   -6.900090
     15          6           0       -4.969729   -1.651946   -6.817041
     16          1           0       -5.900989   -2.220946   -6.922870
     17          6           0       -4.794007   -1.289629   -5.337452
     18          6           0       -3.797972   -2.495158   -7.377990
     19          1           0       -2.910451   -2.395798   -6.748449
     20          1           0       -3.537530   -2.144540   -8.377234
     21          8           0       -4.799769   -0.097576   -4.998262
     22          6           0       -4.230227   -3.949935   -7.396366
     23          7           0       -4.609199   -4.427828   -8.608884
     24          1           0       -5.012558   -5.352665   -8.638266
     25          1           0       -4.805223   -3.784528   -9.362826
     26          8           0       -4.268494   -4.606449   -6.363725
     27          7           0       -4.639644   -2.318035   -4.499113
     28          1           0       -4.503146   -3.252581   -4.887915
     29          6           0       -4.387296   -2.103397   -3.068299
     30          1           0       -4.946855   -1.204415   -2.796478
     31          6           0       -2.885493   -1.831000   -2.890264
     32          6           0       -4.855848   -3.275636   -2.218718
     33          1           0       -5.862873   -3.570321   -2.523537
     34          1           0       -4.196131   -4.131376   -2.386307
     35          8           0       -2.078240   -2.705966   -2.573759
     36          6           0       -4.868869   -2.886101   -0.744067
     37          1           0       -5.582902   -2.067106   -0.583635
     38          1           0       -3.891354   -2.527103   -0.423921
     39          6           0       -5.327163   -4.045717    0.193475
     40          8           0       -4.934599   -3.949776    1.381133
     41          8           0       -6.072053   -4.903776   -0.315534
     42          7           0       -2.505336   -0.556299   -3.146127
     43          1           0       -3.197739    0.096653   -3.490042
     44          6           0       -1.098124   -0.186282   -3.194616
     45          1           0       -0.555072   -1.073481   -3.535247
     46          6           0       -0.604972    0.129836   -1.773516
     47          6           0       -0.857750    0.978113   -4.148413
     48          1           0        0.217907    1.192853   -4.153748
     49          1           0       -1.344859    1.871101   -3.747256
     50          8           0       -0.519043    1.288924   -1.350969
     51          6           0       -1.327918    0.734047   -5.592135
     52          1           0       -2.419188    0.631585   -5.580362
     53          6           0       -0.978285    1.948184   -6.457146
     54          1           0        0.106071    2.097482   -6.492348
     55          1           0       -1.431510    2.862281   -6.060524
     56          1           0       -1.330193    1.814191   -7.486492
     57          6           0       -0.740029   -0.542976   -6.196485
     58          1           0        0.351829   -0.474274   -6.260735
     59          1           0       -0.988445   -1.433337   -5.608762
     60          1           0       -1.122003   -0.698157   -7.212805
     61          7           0       -0.294377   -0.954734   -1.035307
     62          1           0       -0.527481   -1.864991   -1.418043
     63          6           0        0.159822   -0.877281    0.352421
     64          1           0       -0.377748   -0.044307    0.819819
     65          6           0        1.667706   -0.539454    0.393411
     66          6           0       -0.109264   -2.183027    1.097868
     67          1           0        0.528116   -2.961908    0.665479
     68          1           0        0.242255   -2.048197    2.126202
     69          8           0        2.506455   -1.281010    0.893199
     70          6           0       -1.565851   -2.660062    1.129794
     71          1           0       -1.871680   -2.915867    0.106232
     72          6           0       -1.664869   -3.930738    1.979732
     73          1           0       -1.381131   -3.712197    3.015882
     74          1           0       -0.990982   -4.709828    1.604587
     75          1           0       -2.685046   -4.317678    1.975494
     76          6           0       -2.519988   -1.591376    1.668449
     77          1           0       -2.231649   -1.304908    2.687415
     78          1           0       -2.519743   -0.686886    1.047239
     79          1           0       -3.538180   -1.988052    1.702477
     80          7           0        1.982780    0.645513   -0.201129
     81          1           0        1.226543    1.258557   -0.495206
     82          6           0        3.345627    1.127870   -0.254915
     83          1           0        3.951513    0.324054    0.167440
     84          6           0        3.474743    2.370737    0.631019
     85          6           0        3.788875    1.390152   -1.717483
     86          1           0        3.597797    0.441534   -2.238141
     87          8           0        2.644144    3.265835    0.638109
     88          6           0        5.287903    1.703357   -1.844134
     89          1           0        5.478206    1.963439   -2.893491
     90          1           0        5.533961    2.591085   -1.256060
     91          6           0        2.948693    2.481697   -2.393705
     92          1           0        3.166402    3.463215   -1.965365
     93          1           0        1.877033    2.300193   -2.269629
     94          1           0        3.168850    2.514845   -3.465214
     95          6           0        6.216298    0.553778   -1.455646
     96          1           0        7.261214    0.820446   -1.641726
     97          1           0        5.991075   -0.349141   -2.033605
     98          1           0        6.130472    0.289892   -0.394547
     99          7           0        4.583714    2.378777    1.442533
    100          1           0        5.347333    1.766925    1.193058
    101          6           0        4.946052    3.557108    2.201970
    102          1           0        4.047202    4.170294    2.275939
    103          6           0        6.057209    4.329368    1.470778
    104          6           0        5.383205    3.159264    3.622609
    105          1           0        6.328574    2.604514    3.602556
    106          1           0        4.622831    2.474899    4.013205
    107          8           0        6.762405    3.779673    0.614907
    108          6           0        5.477933    4.333043    4.591443
    109          7           0        6.161349    4.098681    5.737192
    110          1           0        6.572760    3.203676    5.945563
    111          1           0        6.216918    4.841210    6.417197
    112          8           0        4.950147    5.419682    4.364107
    113          7           0        6.219083    5.610448    1.856750
    114          1           0        5.695553    5.907133    2.677911
    115          6           0        7.299710    6.452295    1.345285
    116          1           0        7.363356    6.236352    0.273213
    117          6           0        8.633642    6.024883    1.986207
    118          6           0        6.953885    7.943148    1.509792
    119          1           0        6.002434    8.049949    0.972921
    120          8           0        9.163695    6.583715    2.938973
    121          6           0        6.734440    8.395062    2.959925
    122          1           0        7.686159    8.473646    3.486689
    123          1           0        6.255033    9.378691    2.963945
    124          1           0        6.094299    7.710302    3.524338
    125          6           0        8.001861    8.819341    0.814368
    126          1           0        8.973488    8.708781    1.302986
    127          1           0        7.713998    9.873166    0.867850
    128          1           0        8.113316    8.550629   -0.241067
    129          7           0        9.198283    4.934424    1.393862
    130          1           0        8.606920    4.374036    0.784832
    131          6           0       10.374982    4.333186    1.982996
    132          1           0       10.213680    4.157677    3.053634
    133          6           0       11.590512    5.249117    1.906529
    134          6           0       10.675157    3.002186    1.278643
    135          1           0       10.878960    3.201117    0.221367
    136          1           0        9.768041    2.388179    1.324745
    137          8           0       12.420566    5.344074    2.782339
    138          6           0       11.840358    2.246150    1.914986
    139          1           0       11.619440    2.077864    2.976796
    140          1           0       12.736472    2.876390    1.885354
    141          6           0       12.100293    0.903438    1.232791
    142          1           0       11.178779    0.310613    1.224293
    143          1           0       12.375749    1.065626    0.183105
    144          6           0       13.173414    0.067509    1.916362
    145          1           0       12.945127   -0.047029    2.979655
    146          1           0       13.235296   -0.932467    1.481546
    147          7           0       14.533774    0.704241    1.812761
    148          1           0       15.257037    0.151349    2.292513
    149          1           0       14.532635    1.642319    2.233744
    150          1           0       14.819786    0.811452    0.830504
    151          8           0       11.689859    5.886118    0.721942
    152          1           0       12.496802    6.425219    0.769486
 ---------------------------------------------------------------------

 SCF Done:  E(RB3LYP) =  -3473.81366664     A.U. after    3 cycles

 Alpha  occ. eigenvalues --  -19.27163 -19.26817 -19.21428 -19.19942 -19.19089
 Alpha  occ. eigenvalues --  -19.18478 -19.18468 -19.17701 -19.15140 -19.14890
 Alpha  occ. eigenvalues --  -19.14159 -19.12583 -19.00971 -19.00823 -14.62964
 Alpha  occ. eigenvalues --  -14.62901 -14.49176 -14.43279 -14.42791 -14.41991
 Alpha  occ. eigenvalues --  -14.41737 -14.41605 -14.40214 -14.39440 -14.37759
 Alpha  occ. eigenvalues --  -14.36375 -10.43648 -10.41897 -10.40566 -10.39508
 Alpha  occ. eigenvalues --  -10.36749 -10.36496 -10.36291 -10.34863 -10.34386
 Alpha  occ. eigenvalues --  -10.34151 -10.33833 -10.33723 -10.32074 -10.31827
 Alpha  occ. eigenvalues --  -10.31652 -10.31452 -10.30948 -10.29833 -10.29502
 Alpha  occ. eigenvalues --  -10.28845 -10.28552 -10.28457 -10.26841 -10.26481
 Alpha  occ. eigenvalues --  -10.25549 -10.25242 -10.24269 -10.24159 -10.23733
 Alpha  occ. eigenvalues --  -10.23317 -10.23123 -10.22713 -10.22493 -10.22128
 Alpha  occ. eigenvalues --  -10.21769 -10.21657 -10.20767 -10.19952 -10.19188
 Alpha  occ. eigenvalues --  -10.17412 -10.16922 -10.16360 -10.14007 -10.13382
 Alpha  occ. eigenvalues --  -10.13364  -1.19931  -1.18258  -1.17462  -1.16335
 Alpha  occ. eigenvalues --   -1.11926  -1.11028  -1.10681  -1.10219  -1.09452
 Alpha  occ. eigenvalues --   -1.09107  -1.07292  -1.06990  -1.05812  -1.05675
 Alpha  occ. eigenvalues --   -1.04352  -0.99403  -0.98799  -0.98564  -0.98271
 Alpha  occ. eigenvalues --   -0.97570  -0.97002  -0.96131  -0.95042  -0.94601
 Alpha  occ. eigenvalues --   -0.94447  -0.94197  -0.93488  -0.89186  -0.88149
 Alpha  occ. eigenvalues --   -0.86338  -0.85969  -0.85531  -0.84550  -0.83576
 Alpha  occ. eigenvalues --   -0.83149  -0.82510  -0.81420  -0.80031  -0.78511
 Alpha  occ. eigenvalues --   -0.78069  -0.77877  -0.77541  -0.76490  -0.76364
 Alpha  occ. eigenvalues --   -0.75882  -0.75454  -0.75145  -0.74602  -0.74205
 Alpha  occ. eigenvalues --   -0.74001  -0.72628  -0.72350  -0.71721  -0.71296
 Alpha  occ. eigenvalues --   -0.70588  -0.69268  -0.68471  -0.67722  -0.66815
 Alpha  occ. eigenvalues --   -0.66733  -0.66462  -0.66035  -0.65390  -0.65202
 Alpha  occ. eigenvalues --   -0.65041  -0.64365  -0.64330  -0.63346  -0.62997
 Alpha  occ. eigenvalues --   -0.62625  -0.62428  -0.61983  -0.61661  -0.61128
 Alpha  occ. eigenvalues --   -0.60957  -0.60719  -0.60686  -0.60362  -0.59379
 Alpha  occ. eigenvalues --   -0.59264  -0.58796  -0.58641  -0.58430  -0.57661
 Alpha  occ. eigenvalues --   -0.57155  -0.56766  -0.56425  -0.55825  -0.55531
 Alpha  occ. eigenvalues --   -0.55231  -0.55051  -0.54892  -0.54385  -0.54088
 Alpha  occ. eigenvalues --   -0.53827  -0.53683  -0.53593  -0.53485  -0.53198
 Alpha  occ. eigenvalues --   -0.52940  -0.52609  -0.52137  -0.51683  -0.51584
 Alpha  occ. eigenvalues --   -0.51425  -0.51107  -0.50991  -0.50443  -0.50012
 Alpha  occ. eigenvalues --   -0.49866  -0.49578  -0.49452  -0.49418  -0.49272
 Alpha  occ. eigenvalues --   -0.48579  -0.48216  -0.48073  -0.47924  -0.47838
 Alpha  occ. eigenvalues --   -0.47621  -0.47544  -0.46535  -0.46424  -0.46401
 Alpha  occ. eigenvalues --   -0.46237  -0.46053  -0.45827  -0.45646  -0.45551
 Alpha  occ. eigenvalues --   -0.45208  -0.45086  -0.45005  -0.44858  -0.44706
 Alpha  occ. eigenvalues --   -0.44215  -0.43975  -0.43704  -0.43607  -0.43549
 Alpha  occ. eigenvalues --   -0.43135  -0.42760  -0.42617  -0.42359  -0.42063
 Alpha  occ. eigenvalues --   -0.41923  -0.41732  -0.41679  -0.41304  -0.41194
 Alpha  occ. eigenvalues --   -0.41109  -0.40627  -0.40286  -0.40006  -0.39829
 Alpha  occ. eigenvalues --   -0.39378  -0.39274  -0.39072  -0.39001  -0.38684
 Alpha  occ. eigenvalues --   -0.38573  -0.38010  -0.37935  -0.37849  -0.37592
 Alpha  occ. eigenvalues --   -0.37453  -0.37235  -0.36683  -0.36529  -0.35845
 Alpha  occ. eigenvalues --   -0.35646  -0.35554  -0.35518  -0.35086  -0.34759
 Alpha  occ. eigenvalues --   -0.34300  -0.34236  -0.33810  -0.33282  -0.33258
 Alpha  occ. eigenvalues --   -0.33206  -0.32797  -0.32635  -0.32617  -0.32461
 Alpha  occ. eigenvalues --   -0.31636  -0.30859  -0.30669  -0.30356  -0.30057
 Alpha  occ. eigenvalues --   -0.29845  -0.29554  -0.29405  -0.29108  -0.28703
 Alpha  occ. eigenvalues --   -0.28067  -0.27967  -0.26881  -0.26251  -0.25073
 Alpha  occ. eigenvalues --   -0.16493  -0.15254  -0.14564
 Alpha virt. eigenvalues --   -0.14053  -0.13412  -0.12165  -0.07564  -0.07502
 Alpha virt. eigenvalues --   -0.07317  -0.06926  -0.05917  -0.05416  -0.04849
 Alpha virt. eigenvalues --   -0.04670  -0.04648  -0.04405  -0.03594  -0.03574

 Mulliken charges:
               1
     1  N   -0.720438
     2  H    0.427799
     3  H    0.421529
     4  H    0.425561
     5  C   -0.140161
     6  H    0.225980
     7  C    0.655212
     8  C   -0.473605
     9  H    0.230996
    10  H    0.203495
    11  H    0.191093
    12  O   -0.551819
    13  N   -0.614903
    14  H    0.373959
    15  C   -0.040281
    16  H    0.214419
    17  C    0.618590
    18  C   -0.388873
    19  H    0.219519
    20  H    0.160562
    21  O   -0.572901
    22  C    0.587355
    23  N   -0.732719
    24  H    0.359389
    25  H    0.352955
    26  O   -0.482263
    27  N   -0.619240
    28  H    0.395306
    29  C   -0.067760
    30  H    0.173034
    31  C    0.634921
    32  C   -0.261625
    33  H    0.151914
    34  H    0.165266
    35  O   -0.534640
    36  C   -0.392348
    37  H    0.118814
    38  H    0.152463
    39  C    0.576735
    40  O   -0.570870
    41  O   -0.575729
    42  N   -0.606307
    43  H    0.360270
    44  C   -0.065308
    45  H    0.167864
    46  C    0.648365
    47  C   -0.287626
    48  H    0.150657
    49  H    0.165537
    50  O   -0.563990
    51  C   -0.087330
    52  H    0.122278
    53  C   -0.436802
    54  H    0.151718
    55  H    0.148252
    56  H    0.101438
    57  C   -0.460029
    58  H    0.149755
    59  H    0.171575
    60  H    0.114477
    61  N   -0.612044
    62  H    0.377517
    63  C   -0.070630
    64  H    0.185160
    65  C    0.619031
    66  C   -0.273033
    67  H    0.140387
    68  H    0.143045
    69  O   -0.533728
    70  C   -0.089242
    71  H    0.142741
    72  C   -0.462589
    73  H    0.113337
    74  H    0.112301
    75  H    0.222024
    76  C   -0.474175
    77  H    0.114963
    78  H    0.114026
    79  H    0.212420
    80  N   -0.636576
    81  H    0.392219
    82  C   -0.074896
    83  H    0.169626
    84  C    0.628102
    85  C   -0.067809
    86  H    0.130295
    87  O   -0.514314
    88  C   -0.278972
    89  H    0.128005
    90  H    0.165157
    91  C   -0.476781
    92  H    0.161117
    93  H    0.171807
    94  H    0.125099
    95  C   -0.446987
    96  H    0.127475
    97  H    0.151607
    98  H    0.130547
    99  N   -0.601936
   100  H    0.334285
   101  C   -0.076035
   102  H    0.226405
   103  C    0.616415
   104  C   -0.379558
   105  H    0.144379
   106  H    0.217100
   107  O   -0.568071
   108  C    0.618988
   109  N   -0.738650
   110  H    0.345058
   111  H    0.360540
   112  O   -0.519864
   113  N   -0.627479
   114  H    0.404203
   115  C   -0.054846
   116  H    0.169808
   117  C    0.619920
   118  C   -0.088683
   119  H    0.143828
   120  O   -0.521645
   121  C   -0.477221
   122  H    0.181801
   123  H    0.146836
   124  H    0.158391
   125  C   -0.461390
   126  H    0.165253
   127  H    0.155072
   128  H    0.138292
   129  N   -0.638317
   130  H    0.377533
   131  C    0.015962
   132  H    0.176092
   133  C    0.598302
   134  C   -0.320598
   135  H    0.173824
   136  H    0.173409
   137  O   -0.477100
   138  C   -0.289371
   139  H    0.164901
   140  H    0.139407
   141  C   -0.288517
   142  H    0.202425
   143  H    0.166969
   144  C   -0.214558
   145  H    0.223085
   146  H    0.224283
   147  N   -0.680200
   148  H    0.389440
   149  H    0.399020
   150  H    0.383748
   151  O   -0.554943
   152  H    0.416294
 Sum of Mulliken charges =   1.00000

 Dipole moment (field-independent basis, Debye):
    X=             47.3956    Y=             18.8771    Z=            -41.2544  Tot=             65.6096
 Quadrupole moment (field-independent basis, Debye-Ang):
   XX=            419.9184   YY=           -500.6274   ZZ=            100.6228
   XY=            -76.0610   XZ=            374.8749   YZ=            -26.8463

 Normal termination of Gaussian 16 at Mon Jul  4 21:01:42 2022.
