 Gaussian 16, Revision C.01,
 Gaussian 16:  ES64L-G16RevC.01  3-Jul-2019

 ----------------------------------------------------------------------
 # B3LYP/6-31G* empiricaldispersion=gd3 guess=read geom=check nosymm in
 tegral(ultrafinegrid)
 ----------------------------------------------------------------------

 -----------------------------------------------------
 Candidate Structure: Conf:14 Charge calc in gas phase
 -----------------------------------------------------
 Structure from the checkpoint file:  "conf-14.chk"
 Charge =  1 Multiplicity = 1

                          Input orientation:
 ---------------------------------------------------------------------
 Center     Atomic      Atomic             Coordinates (Angstroms)
 Number     Number       Type             X           Y           Z
 ---------------------------------------------------------------------
      1          7           0      -10.241501   -3.479695   -3.860799
      2          1           0      -10.305700   -4.255079   -4.521752
      3          1           0      -11.112421   -3.394309   -3.342623
      4          1           0       -9.473941   -3.690670   -3.216753
      5          6           0       -9.874004   -2.216415   -4.532755
      6          1           0      -10.346484   -2.173120   -5.517492
      7          6           0       -8.358980   -2.225304   -4.712530
      8          6           0      -10.301082   -1.009602   -3.710000
      9          1           0      -10.023747   -0.076493   -4.202537
     10          1           0       -9.818652   -1.031962   -2.729282
     11          1           0      -11.383646   -1.011008   -3.557503
     12          8           0       -7.645083   -2.889613   -3.964422
     13          7           0       -7.869240   -1.428903   -5.686617
     14          1           0       -8.516420   -0.976391   -6.305070
     15          6           0       -6.462121   -1.461625   -6.084426
     16          1           0       -6.108860   -2.485169   -5.923656
     17          6           0       -5.634156   -0.510681   -5.210933
     18          6           0       -6.291777   -1.099479   -7.553948
     19          1           0       -5.233623   -0.939993   -7.758671
     20          1           0       -6.799877   -0.164490   -7.788101
     21          8           0       -4.968391    0.412648   -5.679937
     22          6           0       -6.747003   -2.236969   -8.451124
     23          7           0       -7.222818   -1.855220   -9.666216
     24          1           0       -7.506901   -2.577137  -10.304879
     25          1           0       -7.252617   -0.894912   -9.952046
     26          8           0       -6.651816   -3.403557   -8.115655
     27          7           0       -5.692875   -0.741225   -3.882548
     28          1           0       -6.153407   -1.579060   -3.549744
     29          6           0       -4.900634    0.057087   -2.963042
     30          1           0       -4.885803    1.068365   -3.378135
     31          6           0       -3.470089   -0.483814   -2.922189
     32          6           0       -5.523792    0.092283   -1.572045
     33          1           0       -6.585621    0.311851   -1.697134
     34          1           0       -5.443481   -0.889515   -1.098552
     35          8           0       -3.068042   -1.236734   -2.032467
     36          6           0       -4.871132    1.153978   -0.697026
     37          1           0       -5.069031    2.161860   -1.061379
     38          1           0       -3.784873    1.015485   -0.690536
     39          6           0       -5.288913    1.074983    0.801775
     40          8           0       -5.436859   -0.066459    1.267972
     41          8           0       -5.332352    2.166689    1.394094
     42          7           0       -2.675952   -0.097024   -3.940823
     43          1           0       -3.082568    0.419383   -4.711900
     44          6           0       -1.279007   -0.489879   -3.973722
     45          1           0       -1.244000   -1.515461   -3.594198
     46          6           0       -0.480102    0.402217   -3.025406
     47          6           0       -0.734342   -0.476953   -5.391571
     48          1           0       -0.851995    0.522847   -5.814681
     49          1           0       -1.363943   -1.157353   -5.973920
     50          8           0        0.206976    1.346156   -3.405907
     51          6           0        0.732518   -0.915111   -5.535758
     52          1           0        1.365094   -0.068767   -5.251022
     53          6           0        1.077689   -2.082923   -4.617216
     54          1           0        0.371416   -2.905733   -4.766308
     55          1           0        1.052421   -1.795998   -3.563316
     56          1           0        2.081049   -2.456843   -4.834255
     57          6           0        1.011634   -1.253425   -6.997228
     58          1           0        0.434440   -2.130622   -7.298893
     59          1           0        0.738531   -0.423543   -7.653382
     60          1           0        2.069747   -1.473055   -7.156332
     61          7           0       -0.602426    0.093182   -1.712224
     62          1           0       -1.193479   -0.681621   -1.450831
     63          6           0        0.329097    0.629839   -0.741281
     64          1           0        0.343399    1.714663   -0.870014
     65          6           0        1.736616    0.109744   -1.041217
     66          6           0       -0.085211    0.248043    0.671715
     67          1           0        0.053715   -0.826318    0.792385
     68          1           0        0.593559    0.734112    1.378313
     69          8           0        1.969107   -1.082090   -1.218113
     70          6           0       -1.520014    0.623553    1.043154
     71          1           0       -2.197281    0.042210    0.406883
     72          6           0       -1.796389    0.238857    2.493018
     73          1           0       -1.146226    0.807093    3.162193
     74          1           0       -1.605258   -0.823744    2.661140
     75          1           0       -2.832060    0.441865    2.774696
     76          6           0       -1.788930    2.106043    0.820214
     77          1           0       -1.105560    2.709293    1.423945
     78          1           0       -1.661137    2.385598   -0.230495
     79          1           0       -2.809055    2.368332    1.111884
     80          7           0        2.692856    1.065825   -1.158212
     81          1           0        2.563199    1.947723   -0.690738
     82          6           0        4.061396    0.671068   -1.416311
     83          1           0        4.007921   -0.266267   -1.973693
     84          6           0        4.743324    0.464727   -0.075086
     85          6           0        4.822238    1.711623   -2.261566
     86          1           0        4.731521    2.669232   -1.737451
     87          8           0        4.743307    1.355457    0.769040
     88          6           0        4.172381    1.838529   -3.641339
     89          1           0        4.393384    0.918932   -4.195489
     90          1           0        3.087724    1.873010   -3.533148
     91          6           0        6.302547    1.335913   -2.384162
     92          1           0        6.394024    0.323974   -2.792478
     93          1           0        6.812100    1.355113   -1.420595
     94          1           0        6.828872    2.015399   -3.055355
     95          6           0        4.637948    3.053392   -4.431717
     96          1           0        4.151750    3.092776   -5.408165
     97          1           0        5.716076    3.044058   -4.598306
     98          1           0        4.395801    3.977792   -3.899692
     99          7           0        5.388415   -0.706023    0.097125
    100          1           0        5.194423   -1.486776   -0.516211
    101          6           0        6.130387   -0.975471    1.315944
    102          1           0        5.445950   -0.886224    2.164307
    103          6           0        7.250491    0.055139    1.463732
    104          6           0        6.750468   -2.372246    1.262406
    105          1           0        7.301560   -2.578262    2.179214
    106          1           0        7.448122   -2.398418    0.428146
    107          8           0        8.070861    0.244969    0.564941
    108          6           0        5.690571   -3.429396    1.010634
    109          7           0        5.448286   -4.288440    2.031037
    110          1           0        5.867568   -4.168114    2.933978
    111          1           0        4.713225   -4.962412    1.903604
    112          8           0        5.111585   -3.503176   -0.062518
    113          7           0        7.280225    0.713833    2.641761
    114          1           0        6.618982    0.499452    3.370122
    115          6           0        8.340372    1.642033    2.971162
    116          1           0        9.168165    1.434576    2.289307
    117          6           0        8.742652    1.369742    4.418334
    118          6           0        7.929956    3.119407    2.776746
    119          1           0        7.099025    3.309970    3.460091
    120          8           0        7.903271    1.178733    5.287503
    121          6           0        9.076656    4.070185    3.123755
    122          1           0        9.937155    3.871666    2.473007
    123          1           0        8.761724    5.103285    2.959462
    124          1           0        9.398849    3.980056    4.162821
    125          6           0        7.469957    3.363016    1.340280
    126          1           0        8.242476    3.024791    0.645490
    127          1           0        7.291537    4.426955    1.177360
    128          1           0        6.552324    2.827692    1.110524
    129          7           0       10.080239    1.382088    4.668499
    130          1           0       10.705795    1.720245    3.951360
    131          6           0       10.584537    1.460646    6.023266
    132          1           0        9.749819    1.726272    6.679867
    133          6           0       11.612076    2.567109    6.085554
    134          6           0       11.183932    0.139090    6.514805
    135          1           0       11.580804    0.305057    7.516633
    136          1           0       12.025048   -0.142656    5.876851
    137          8           0       12.082081    3.134380    5.129942
    138          6           0       10.147124   -0.974372    6.549600
    139          1           0        9.823268   -1.210647    5.535367
    140          1           0        9.260787   -0.612197    7.077935
    141          6           0       10.653930   -2.247457    7.211949
    142          1           0       10.974548   -2.035743    8.238251
    143          1           0        9.834398   -2.968893    7.278297
    144          6           0       11.802714   -2.895358    6.467721
    145          1           0       11.517697   -3.045465    5.423179
    146          1           0       12.669701   -2.231201    6.475051
    147          7           0       12.194716   -4.194665    7.070761
    148          1           0       12.972383   -4.632531    6.576661
    149          1           0       11.414697   -4.849968    7.059127
    150          1           0       12.477118   -4.074120    8.042316
    151          8           0       11.966461    2.852660    7.352039
    152          1           0       12.630904    3.551077    7.292812
 ---------------------------------------------------------------------

 SCF Done:  E(RB3LYP) =  -3473.78019960     A.U. after    3 cycles

 Alpha  occ. eigenvalues --  -19.28372 -19.25773 -19.22967 -19.19011 -19.18594
 Alpha  occ. eigenvalues --  -19.17325 -19.16484 -19.15418 -19.13757 -19.12897
 Alpha  occ. eigenvalues --  -19.11863 -19.11405 -19.01236 -19.01027 -14.63277
 Alpha  occ. eigenvalues --  -14.62241 -14.48997 -14.43806 -14.43153 -14.41574
 Alpha  occ. eigenvalues --  -14.40666 -14.40553 -14.38422 -14.37248 -14.36603
 Alpha  occ. eigenvalues --  -14.34878 -10.42712 -10.41036 -10.40834 -10.40346
 Alpha  occ. eigenvalues --  -10.36366 -10.35733 -10.34386 -10.34367 -10.33468
 Alpha  occ. eigenvalues --  -10.32935 -10.32840 -10.32689 -10.32191 -10.30335
 Alpha  occ. eigenvalues --  -10.30064 -10.29757 -10.29666 -10.28613 -10.28477
 Alpha  occ. eigenvalues --  -10.28149 -10.28122 -10.27666 -10.25608 -10.24354
 Alpha  occ. eigenvalues --  -10.23727 -10.23500 -10.23311 -10.22542 -10.21758
 Alpha  occ. eigenvalues --  -10.20356 -10.19486 -10.19259 -10.19231 -10.19158
 Alpha  occ. eigenvalues --  -10.18312 -10.18263 -10.18254 -10.18140 -10.17789
 Alpha  occ. eigenvalues --  -10.17319 -10.17282 -10.16573 -10.14569 -10.14147
 Alpha  occ. eigenvalues --  -10.13266  -1.19905  -1.19407  -1.18544  -1.16140
 Alpha  occ. eigenvalues --   -1.11478  -1.10991  -1.10692  -1.09482  -1.08885
 Alpha  occ. eigenvalues --   -1.07693  -1.06022  -1.05323  -1.05108  -1.04154
 Alpha  occ. eigenvalues --   -1.03052  -1.01061  -0.98131  -0.97420  -0.97157
 Alpha  occ. eigenvalues --   -0.96489  -0.95685  -0.95320  -0.94964  -0.94045
 Alpha  occ. eigenvalues --   -0.93885  -0.93559  -0.92050  -0.89278  -0.87368
 Alpha  occ. eigenvalues --   -0.86116  -0.85471  -0.83946  -0.83468  -0.82553
 Alpha  occ. eigenvalues --   -0.82221  -0.81808  -0.80386  -0.79969  -0.79061
 Alpha  occ. eigenvalues --   -0.77029  -0.76740  -0.76614  -0.76195  -0.75895
 Alpha  occ. eigenvalues --   -0.75524  -0.75368  -0.74981  -0.73561  -0.72807
 Alpha  occ. eigenvalues --   -0.72444  -0.71809  -0.70547  -0.70321  -0.69554
 Alpha  occ. eigenvalues --   -0.69205  -0.69137  -0.67915  -0.67438  -0.66747
 Alpha  occ. eigenvalues --   -0.66624  -0.65860  -0.65492  -0.65246  -0.64843
 Alpha  occ. eigenvalues --   -0.64416  -0.64029  -0.63461  -0.63065  -0.62056
 Alpha  occ. eigenvalues --   -0.61870  -0.61674  -0.61373  -0.61069  -0.60730
 Alpha  occ. eigenvalues --   -0.60282  -0.59831  -0.59671  -0.59106  -0.58491
 Alpha  occ. eigenvalues --   -0.58421  -0.58195  -0.57223  -0.57046  -0.56768
 Alpha  occ. eigenvalues --   -0.56527  -0.56347  -0.55887  -0.55551  -0.54888
 Alpha  occ. eigenvalues --   -0.54728  -0.54625  -0.54312  -0.54004  -0.53709
 Alpha  occ. eigenvalues --   -0.53435  -0.53283  -0.52905  -0.52678  -0.52115
 Alpha  occ. eigenvalues --   -0.51705  -0.51551  -0.51295  -0.50951  -0.50708
 Alpha  occ. eigenvalues --   -0.50614  -0.50250  -0.49985  -0.49843  -0.49458
 Alpha  occ. eigenvalues --   -0.49056  -0.48584  -0.47818  -0.47679  -0.47621
 Alpha  occ. eigenvalues --   -0.47532  -0.47293  -0.46964  -0.46673  -0.46545
 Alpha  occ. eigenvalues --   -0.46279  -0.45851  -0.45808  -0.45274  -0.45149
 Alpha  occ. eigenvalues --   -0.44838  -0.44719  -0.44418  -0.44388  -0.44299
 Alpha  occ. eigenvalues --   -0.43971  -0.43867  -0.43701  -0.43521  -0.43313
 Alpha  occ. eigenvalues --   -0.42913  -0.42598  -0.42444  -0.42261  -0.42062
 Alpha  occ. eigenvalues --   -0.41894  -0.41547  -0.41218  -0.40914  -0.40709
 Alpha  occ. eigenvalues --   -0.40564  -0.40232  -0.40129  -0.40055  -0.39816
 Alpha  occ. eigenvalues --   -0.39492  -0.38971  -0.38792  -0.38755  -0.38629
 Alpha  occ. eigenvalues --   -0.38419  -0.38131  -0.37970  -0.37698  -0.37259
 Alpha  occ. eigenvalues --   -0.37147  -0.36958  -0.36760  -0.36688  -0.36568
 Alpha  occ. eigenvalues --   -0.36482  -0.35745  -0.35528  -0.34381  -0.34343
 Alpha  occ. eigenvalues --   -0.34044  -0.34007  -0.33906  -0.33539  -0.33511
 Alpha  occ. eigenvalues --   -0.33279  -0.33143  -0.33048  -0.32898  -0.32794
 Alpha  occ. eigenvalues --   -0.32764  -0.32491  -0.31651  -0.31071  -0.30721
 Alpha  occ. eigenvalues --   -0.30654  -0.30570  -0.30487  -0.30089  -0.29815
 Alpha  occ. eigenvalues --   -0.29477  -0.28474  -0.28326  -0.28077  -0.27948
 Alpha  occ. eigenvalues --   -0.26904  -0.26164  -0.25374  -0.24359  -0.23963
 Alpha  occ. eigenvalues --   -0.16987  -0.15567  -0.14733
 Alpha virt. eigenvalues --   -0.14189  -0.12477  -0.11260  -0.08011  -0.07571
 Alpha virt. eigenvalues --   -0.07478  -0.06730  -0.05467  -0.05390  -0.04708
 Alpha virt. eigenvalues --   -0.04614  -0.03965  -0.03187  -0.02387  -0.01261

 Mulliken charges:
               1
     1  N   -0.714439
     2  H    0.433594
     3  H    0.426709
     4  H    0.435768
     5  C   -0.146057
     6  H    0.212846
     7  C    0.659162
     8  C   -0.475366
     9  H    0.225196
    10  H    0.224226
    11  H    0.188305
    12  O   -0.518188
    13  N   -0.585875
    14  H    0.343161
    15  C   -0.081667
    16  H    0.232715
    17  C    0.638335
    18  C   -0.403305
    19  H    0.237744
    20  H    0.157709
    21  O   -0.538053
    22  C    0.591421
    23  N   -0.750644
    24  H    0.353145
    25  H    0.348265
    26  O   -0.503579
    27  N   -0.628218
    28  H    0.367557
    29  C   -0.053291
    30  H    0.174847
    31  C    0.635534
    32  C   -0.259464
    33  H    0.091691
    34  H    0.172164
    35  O   -0.544644
    36  C   -0.375267
    37  H    0.114165
    38  H    0.157790
    39  C    0.569542
    40  O   -0.591349
    41  O   -0.580536
    42  N   -0.623301
    43  H    0.361588
    44  C   -0.050878
    45  H    0.173763
    46  C    0.641165
    47  C   -0.276161
    48  H    0.147376
    49  H    0.117663
    50  O   -0.547232
    51  C   -0.074269
    52  H    0.160647
    53  C   -0.473631
    54  H    0.125218
    55  H    0.189651
    56  H    0.135782
    57  C   -0.444602
    58  H    0.129047
    59  H    0.136422
    60  H    0.139149
    61  N   -0.611369
    62  H    0.374624
    63  C   -0.030282
    64  H    0.157656
    65  C    0.627200
    66  C   -0.292726
    67  H    0.146419
    68  H    0.127339
    69  O   -0.543956
    70  C   -0.086628
    71  H    0.162755
    72  C   -0.448996
    73  H    0.113312
    74  H    0.119743
    75  H    0.201839
    76  C   -0.478382
    77  H    0.111403
    78  H    0.136612
    79  H    0.207150
    80  N   -0.583568
    81  H    0.338351
    82  C   -0.063706
    83  H    0.170525
    84  C    0.639106
    85  C   -0.079646
    86  H    0.128363
    87  O   -0.559734
    88  C   -0.271277
    89  H    0.123255
    90  H    0.187777
    91  C   -0.483756
    92  H    0.134737
    93  H    0.186122
    94  H    0.145893
    95  C   -0.448761
    96  H    0.146027
    97  H    0.138969
    98  H    0.142044
    99  N   -0.611530
   100  H    0.378395
   101  C   -0.020094
   102  H    0.153379
   103  C    0.648092
   104  C   -0.386115
   105  H    0.123601
   106  H    0.209494
   107  O   -0.542578
   108  C    0.604069
   109  N   -0.744069
   110  H    0.330371
   111  H    0.355673
   112  O   -0.491001
   113  N   -0.598617
   114  H    0.343414
   115  C   -0.043634
   116  H    0.164641
   117  C    0.602540
   118  C   -0.070220
   119  H    0.146540
   120  O   -0.537563
   121  C   -0.462983
   122  H    0.142337
   123  H    0.163812
   124  H    0.136220
   125  C   -0.482383
   126  H    0.153885
   127  H    0.141630
   128  H    0.213489
   129  N   -0.605399
   130  H    0.356713
   131  C   -0.054414
   132  H    0.215862
   133  C    0.583878
   134  C   -0.280582
   135  H    0.168755
   136  H    0.139492
   137  O   -0.451092
   138  C   -0.270922
   139  H    0.166327
   140  H    0.199344
   141  C   -0.290988
   142  H    0.166135
   143  H    0.163162
   144  C   -0.220817
   145  H    0.222074
   146  H    0.223319
   147  N   -0.663343
   148  H    0.388056
   149  H    0.381632
   150  H    0.383554
   151  O   -0.562559
   152  H    0.427543
 Sum of Mulliken charges =   1.00000

 Dipole moment (field-independent basis, Debye):
    X=             20.0166    Y=            -29.7502    Z=              7.2737  Tot=             36.5875
 Quadrupole moment (field-independent basis, Debye-Ang):
   XX=            614.7903   YY=           -326.2251   ZZ=            -73.3459
   XY=            -45.7542   XZ=            653.0252   YZ=            -76.9756

 Normal termination of Gaussian 16 at Mon Jul  4 20:52:46 2022.
