 Gaussian 16, Revision C.01,
 Gaussian 16:  ES64L-G16RevC.01  3-Jul-2019

 ----------------------------------------------------------------------
 # B3LYP/6-31G* empiricaldispersion=gd3 guess=read geom=check nosymm in
 tegral(ultrafinegrid)
 ----------------------------------------------------------------------

 ------------------------------------------------------
 Candidate Structure: Conf:879 Charge calc in gas phase
 ------------------------------------------------------
 Structure from the checkpoint file:  "conf-879.chk"
 Charge =  1 Multiplicity = 1

                          Input orientation:
 ---------------------------------------------------------------------
 Center     Atomic      Atomic             Coordinates (Angstroms)
 Number     Number       Type             X           Y           Z
 ---------------------------------------------------------------------
      1          7           0       -8.584055   -4.795231   -7.693294
      2          1           0       -7.543560   -4.705444   -7.845567
      3          1           0       -9.089979   -4.937840   -8.571005
      4          1           0       -8.707586   -5.602572   -7.066274
      5          6           0       -9.045724   -3.569702   -6.924649
      6          1           0       -8.819574   -2.708905   -7.558301
      7          6           0       -8.126286   -3.640183   -5.688283
      8          6           0      -10.526536   -3.671452   -6.586788
      9          1           0      -10.837254   -2.768954   -6.052443
     10          1           0      -10.710327   -4.531324   -5.934567
     11          1           0      -11.142720   -3.757322   -7.488369
     12          8           0       -7.994908   -4.738308   -5.145276
     13          7           0       -7.455644   -2.527248   -5.364107
     14          1           0       -7.588223   -1.654645   -5.867420
     15          6           0       -6.194197   -2.594873   -4.641641
     16          1           0       -6.267699   -3.383026   -3.889581
     17          6           0       -5.921569   -1.206500   -4.042397
     18          6           0       -5.016202   -2.866480   -5.630870
     19          1           0       -4.082435   -2.870293   -5.061343
     20          1           0       -4.969619   -2.014731   -6.316688
     21          8           0       -6.271538   -0.214573   -4.675916
     22          6           0       -5.202568   -4.109285   -6.481322
     23          7           0       -4.455347   -5.180021   -6.158439
     24          1           0       -4.524828   -6.021553   -6.715177
     25          1           0       -3.761861   -5.146776   -5.424600
     26          8           0       -6.003088   -4.129162   -7.435676
     27          7           0       -5.250696   -1.203906   -2.868629
     28          1           0       -4.893530   -2.102561   -2.566539
     29          6           0       -4.385585   -0.083203   -2.497616
     30          1           0       -4.778747    0.792254   -3.022795
     31          6           0       -2.980668   -0.407201   -3.086294
     32          6           0       -4.439584    0.166962   -0.976067
     33          1           0       -4.023714    1.153327   -0.746660
     34          1           0       -5.501897    0.197177   -0.708702
     35          8           0       -2.821657   -1.392583   -3.814165
     36          6           0       -3.678053   -0.859043   -0.119719
     37          1           0       -3.830483   -1.890064   -0.461281
     38          1           0       -4.059210   -0.800895    0.907326
     39          6           0       -2.160687   -0.548609   -0.066094
     40          8           0       -1.366620   -1.515492   -0.265136
     41          8           0       -1.847718    0.656944    0.136015
     42          7           0       -1.980975    0.449386   -2.785053
     43          1           0       -2.103358    1.056246   -1.976677
     44          6           0       -0.594707    0.038765   -3.070431
     45          1           0       -0.540602   -1.038427   -2.890786
     46          6           0        0.325178    0.768686   -2.088383
     47          6           0       -0.195277    0.359911   -4.517910
     48          1           0       -0.368471    1.428848   -4.681837
     49          1           0       -0.873602   -0.197149   -5.175119
     50          8           0        0.649405    1.949269   -2.297784
     51          6           0        1.267141    0.023281   -4.868381
     52          1           0        1.913506    0.649724   -4.237751
     53          6           0        1.618205   -1.447062   -4.593737
     54          1           0        0.933962   -2.118746   -5.128713
     55          1           0        1.561604   -1.687169   -3.526493
     56          1           0        2.637976   -1.672666   -4.928400
     57          6           0        1.550514    0.391145   -6.331024
     58          1           0        0.936702   -0.213221   -7.011924
     59          1           0        1.326508    1.446510   -6.525939
     60          1           0        2.602454    0.215974   -6.586850
     61          7           0        0.768838    0.035550   -1.042627
     62          1           0        0.115095   -0.731127   -0.756889
     63          6           0        1.387461    0.747594    0.086343
     64          1           0        0.945300    1.749370    0.109114
     65          6           0        2.894214    0.928977   -0.191596
     66          6           0        1.097909    0.028603    1.406910
     67          1           0        0.099643   -0.405804    1.325509
     68          1           0        1.798145   -0.809620    1.520640
     69          8           0        3.796970    0.393959    0.496413
     70          6           0        1.122753    0.929549    2.658504
     71          1           0        2.125249    1.370733    2.784228
     72          6           0        0.113526    2.087658    2.560326
     73          1           0       -0.861350    1.717195    2.225838
     74          1           0        0.432918    2.849381    1.841121
     75          1           0        0.000093    2.584327    3.531178
     76          6           0        0.810793    0.077994    3.900515
     77          1           0       -0.223513   -0.283015    3.860279
     78          1           0        1.442157   -0.822080    3.970953
     79          1           0        0.932556    0.654382    4.824400
     80          7           0        3.172617    1.713143   -1.240153
     81          1           0        2.361339    2.112010   -1.726007
     82          6           0        4.526514    1.998616   -1.718627
     83          1           0        5.102515    1.076176   -1.597380
     84          6           0        5.115225    3.059630   -0.764645
     85          6           0        4.538868    2.387857   -3.213247
     86          1           0        4.252232    1.470756   -3.750685
     87          8           0        4.941400    4.266975   -0.873999
     88          6           0        5.963414    2.773984   -3.663989
     89          1           0        5.929282    2.943236   -4.747473
     90          1           0        6.225850    3.738000   -3.210492
     91          6           0        3.536010    3.493076   -3.588137
     92          1           0        3.720988    4.397737   -3.004267
     93          1           0        2.496124    3.184198   -3.440194
     94          1           0        3.646343    3.736495   -4.650960
     95          6           0        7.051045    1.738207   -3.351071
     96          1           0        7.997295    2.014728   -3.828453
     97          1           0        6.771451    0.742665   -3.718955
     98          1           0        7.244335    1.657362   -2.274949
     99          7           0        5.804125    2.504621    0.284383
    100          1           0        5.668387    1.509261    0.439424
    101          6           0        5.996035    3.269344    1.497163
    102          1           0        6.382473    4.251110    1.212977
    103          6           0        7.024031    2.518490    2.357801
    104          6           0        4.616806    3.465420    2.242098
    105          1           0        3.945543    2.675415    1.903124
    106          1           0        4.188937    4.422774    1.932592
    107          8           0        7.032667    1.288439    2.421275
    108          6           0        4.742204    3.334455    3.745245
    109          7           0        5.049173    4.444814    4.446940
    110          1           0        5.187953    5.332561    3.986837
    111          1           0        5.468411    4.306730    5.360507
    112          8           0        4.627497    2.231655    4.298736
    113          7           0        7.900308    3.309353    3.023327
    114          1           0        7.740407    4.306856    3.022441
    115          6           0        8.889552    2.800741    3.966595
    116          1           0        9.337833    1.912406    3.507730
    117          6           0        8.180833    2.409575    5.280050
    118          6           0        9.988746    3.859536    4.222091
    119          1           0        9.489050    4.731386    4.671367
    120          8           0        7.304032    3.115802    5.770462
    121          6           0       11.032973    3.338574    5.221822
    122          1           0       11.541470    2.450183    4.824982
    123          1           0       11.797230    4.102206    5.396705
    124          1           0       10.598027    3.071039    6.188998
    125          6           0       10.667648    4.283622    2.911199
    126          1           0       11.168070    3.427295    2.442682
    127          1           0       11.426485    5.047915    3.108309
    128          1           0        9.961024    4.692920    2.182352
    129          7           0        8.605124    1.244832    5.829721
    130          1           0        9.396816    0.761394    5.426872
    131          6           0        7.944576    0.602542    6.947590
    132          1           0        7.238688    1.325824    7.363870
    133          6           0        8.983262    0.239459    7.999156
    134          6           0        7.182863   -0.669197    6.483596
    135          1           0        6.627352   -1.074364    7.336552
    136          1           0        7.921294   -1.430014    6.191391
    137          8           0       10.179128    0.230109    7.810076
    138          6           0        6.265356   -0.359293    5.297997
    139          1           0        6.850640    0.158221    4.532643
    140          1           0        5.494003    0.352953    5.610356
    141          6           0        5.635740   -1.598120    4.642066
    142          1           0        6.365088   -2.417822    4.605378
    143          1           0        4.783311   -1.973235    5.225540
    144          6           0        5.211997   -1.327895    3.197594
    145          1           0        6.060615   -0.997429    2.595526
    146          1           0        4.766851   -2.210863    2.730373
    147          7           0        4.199783   -0.227546    3.103651
    148          1           0        3.926894   -0.050983    2.101398
    149          1           0        4.536547    0.686525    3.493314
    150          1           0        3.347604   -0.460596    3.619405
    151          8           0        8.397910   -0.124091    9.157974
    152          1           0        9.111377   -0.381132    9.773067
 ---------------------------------------------------------------------

 SCF Done:  E(RB3LYP) =  -3473.99994878     A.U. after    2 cycles

 Alpha  occ. eigenvalues --  -19.26533 -19.23117 -19.22882 -19.20907 -19.20312
 Alpha  occ. eigenvalues --  -19.20190 -19.19632 -19.19263 -19.18924 -19.17551
 Alpha  occ. eigenvalues --  -19.16517 -19.16329 -19.10864 -19.10149 -14.56913
 Alpha  occ. eigenvalues --  -14.48713 -14.46776 -14.46651 -14.44649 -14.43441
 Alpha  occ. eigenvalues --  -14.43439 -14.42627 -14.41598 -14.41529 -14.39629
 Alpha  occ. eigenvalues --  -14.38406 -10.40587 -10.40316 -10.38893 -10.38184
 Alpha  occ. eigenvalues --  -10.37448 -10.37176 -10.36367 -10.36080 -10.35287
 Alpha  occ. eigenvalues --  -10.34373 -10.33309 -10.33240 -10.32432 -10.31612
 Alpha  occ. eigenvalues --  -10.31172 -10.31005 -10.30871 -10.30808 -10.28649
 Alpha  occ. eigenvalues --  -10.28629 -10.28562 -10.28356 -10.27467 -10.27351
 Alpha  occ. eigenvalues --  -10.27109 -10.26845 -10.26319 -10.26253 -10.24767
 Alpha  occ. eigenvalues --  -10.24321 -10.24187 -10.24080 -10.23953 -10.23221
 Alpha  occ. eigenvalues --  -10.22716 -10.22356 -10.22337 -10.22273 -10.21877
 Alpha  occ. eigenvalues --  -10.21126 -10.20858 -10.20825 -10.20810 -10.20772
 Alpha  occ. eigenvalues --  -10.20493  -1.17428  -1.16082  -1.13929  -1.12322
 Alpha  occ. eigenvalues --   -1.11494  -1.11418  -1.10919  -1.10752  -1.10535
 Alpha  occ. eigenvalues --   -1.09264  -1.08554  -1.08249  -1.07572  -1.04537
 Alpha  occ. eigenvalues --   -1.03700  -1.03517  -1.01355  -1.00988  -1.00239
 Alpha  occ. eigenvalues --   -0.99393  -0.99035  -0.98562  -0.98332  -0.96334
 Alpha  occ. eigenvalues --   -0.95595  -0.94610  -0.90657  -0.88605  -0.87593
 Alpha  occ. eigenvalues --   -0.87399  -0.86283  -0.85739  -0.84767  -0.84596
 Alpha  occ. eigenvalues --   -0.84316  -0.83077  -0.80380  -0.79735  -0.79514
 Alpha  occ. eigenvalues --   -0.78398  -0.77982  -0.77286  -0.76968  -0.76262
 Alpha  occ. eigenvalues --   -0.75123  -0.74222  -0.73673  -0.72832  -0.71833
 Alpha  occ. eigenvalues --   -0.71734  -0.71698  -0.70606  -0.70135  -0.69584
 Alpha  occ. eigenvalues --   -0.69363  -0.68534  -0.68465  -0.67458  -0.67020
 Alpha  occ. eigenvalues --   -0.66776  -0.66657  -0.66365  -0.65947  -0.65764
 Alpha  occ. eigenvalues --   -0.64901  -0.64573  -0.64483  -0.64140  -0.63462
 Alpha  occ. eigenvalues --   -0.63030  -0.62758  -0.62352  -0.61774  -0.61476
 Alpha  occ. eigenvalues --   -0.60989  -0.60820  -0.60536  -0.59933  -0.59433
 Alpha  occ. eigenvalues --   -0.58592  -0.58487  -0.57885  -0.57396  -0.56842
 Alpha  occ. eigenvalues --   -0.56649  -0.56476  -0.56164  -0.56010  -0.55822
 Alpha  occ. eigenvalues --   -0.55336  -0.54901  -0.54577  -0.54295  -0.53936
 Alpha  occ. eigenvalues --   -0.53715  -0.53409  -0.53318  -0.53046  -0.52840
 Alpha  occ. eigenvalues --   -0.52373  -0.52195  -0.51966  -0.51812  -0.51500
 Alpha  occ. eigenvalues --   -0.51413  -0.51202  -0.50977  -0.50915  -0.50727
 Alpha  occ. eigenvalues --   -0.50401  -0.50265  -0.49658  -0.49542  -0.49340
 Alpha  occ. eigenvalues --   -0.48979  -0.48960  -0.48898  -0.48633  -0.48391
 Alpha  occ. eigenvalues --   -0.47970  -0.47826  -0.47702  -0.47538  -0.47335
 Alpha  occ. eigenvalues --   -0.47248  -0.47067  -0.46634  -0.46463  -0.46360
 Alpha  occ. eigenvalues --   -0.46188  -0.46015  -0.45975  -0.45696  -0.45537
 Alpha  occ. eigenvalues --   -0.45453  -0.45295  -0.45212  -0.44998  -0.44977
 Alpha  occ. eigenvalues --   -0.44746  -0.44553  -0.44366  -0.44090  -0.44042
 Alpha  occ. eigenvalues --   -0.43938  -0.43500  -0.43033  -0.42705  -0.42621
 Alpha  occ. eigenvalues --   -0.42390  -0.41893  -0.41667  -0.41418  -0.41392
 Alpha  occ. eigenvalues --   -0.41018  -0.40915  -0.40846  -0.40721  -0.40686
 Alpha  occ. eigenvalues --   -0.40579  -0.40205  -0.40158  -0.40040  -0.39633
 Alpha  occ. eigenvalues --   -0.39517  -0.38859  -0.38537  -0.38010  -0.37852
 Alpha  occ. eigenvalues --   -0.37778  -0.37740  -0.37422  -0.37371  -0.37348
 Alpha  occ. eigenvalues --   -0.37105  -0.36996  -0.36559  -0.36434  -0.36219
 Alpha  occ. eigenvalues --   -0.35803  -0.35751  -0.35623  -0.35543  -0.34969
 Alpha  occ. eigenvalues --   -0.34731  -0.34364  -0.34236  -0.33542  -0.33391
 Alpha  occ. eigenvalues --   -0.33294  -0.32612  -0.32352  -0.32012  -0.31737
 Alpha  occ. eigenvalues --   -0.30555  -0.30231  -0.29600  -0.29395  -0.29135
 Alpha  occ. eigenvalues --   -0.26451  -0.24879  -0.24493
 Alpha virt. eigenvalues --   -0.10355  -0.09399  -0.07137  -0.06938  -0.06662
 Alpha virt. eigenvalues --   -0.05842  -0.05245  -0.05003  -0.04922  -0.03545
 Alpha virt. eigenvalues --   -0.03180  -0.02366  -0.02319  -0.01712  -0.01549

 Mulliken charges:
               1
     1  N   -0.747644
     2  H    0.449684
     3  H    0.399914
     4  H    0.409299
     5  C   -0.106841
     6  H    0.206063
     7  C    0.649014
     8  C   -0.464181
     9  H    0.210622
    10  H    0.197060
    11  H    0.177798
    12  O   -0.537628
    13  N   -0.577264
    14  H    0.358451
    15  C   -0.095523
    16  H    0.195078
    17  C    0.638273
    18  C   -0.374102
    19  H    0.223875
    20  H    0.203494
    21  O   -0.528956
    22  C    0.635346
    23  N   -0.718901
    24  H    0.355748
    25  H    0.371560
    26  O   -0.591029
    27  N   -0.565035
    28  H    0.338646
    29  C   -0.098874
    30  H    0.204409
    31  C    0.619296
    32  C   -0.286925
    33  H    0.177446
    34  H    0.146418
    35  O   -0.557915
    36  C   -0.334227
    37  H    0.120422
    38  H    0.152758
    39  C    0.594430
    40  O   -0.616268
    41  O   -0.611178
    42  N   -0.621955
    43  H    0.370564
    44  C   -0.013899
    45  H    0.181032
    46  C    0.592591
    47  C   -0.251620
    48  H    0.152973
    49  H    0.143942
    50  O   -0.569203
    51  C   -0.092666
    52  H    0.140274
    53  C   -0.451450
    54  H    0.136724
    55  H    0.151596
    56  H    0.136277
    57  C   -0.442700
    58  H    0.135186
    59  H    0.146227
    60  H    0.137064
    61  N   -0.621519
    62  H    0.403480
    63  C   -0.051751
    64  H    0.192866
    65  C    0.645560
    66  C   -0.301693
    67  H    0.210090
    68  H    0.108166
    69  O   -0.617146
    70  C   -0.103660
    71  H    0.101149
    72  C   -0.461924
    73  H    0.201603
    74  H    0.142421
    75  H    0.134412
    76  C   -0.460945
    77  H    0.173933
    78  H    0.111456
    79  H    0.154265
    80  N   -0.627936
    81  H    0.415239
    82  C   -0.050914
    83  H    0.166774
    84  C    0.621291
    85  C   -0.097875
    86  H    0.139806
    87  O   -0.523289
    88  C   -0.266900
    89  H    0.141287
    90  H    0.159115
    91  C   -0.502044
    92  H    0.184972
    93  H    0.180071
    94  H    0.144189
    95  C   -0.461236
    96  H    0.152635
    97  H    0.143854
    98  H    0.144138
    99  N   -0.599309
   100  H    0.361014
   101  C   -0.051758
   102  H    0.178314
   103  C    0.636237
   104  C   -0.385683
   105  H    0.187549
   106  H    0.195198
   107  O   -0.552892
   108  C    0.616882
   109  N   -0.726368
   110  H    0.343385
   111  H    0.387500
   112  O   -0.551628
   113  N   -0.594078
   114  H    0.334719
   115  C   -0.032908
   116  H    0.163809
   117  C    0.639723
   118  C   -0.113778
   119  H    0.143143
   120  O   -0.550782
   121  C   -0.468076
   122  H    0.147743
   123  H    0.165728
   124  H    0.175096
   125  C   -0.443842
   126  H    0.155162
   127  H    0.164560
   128  H    0.144961
   129  N   -0.582010
   130  H    0.345506
   131  C   -0.059636
   132  H    0.211264
   133  C    0.590299
   134  C   -0.278441
   135  H    0.172187
   136  H    0.142225
   137  O   -0.460495
   138  C   -0.310231
   139  H    0.184672
   140  H    0.175464
   141  C   -0.278847
   142  H    0.162580
   143  H    0.150825
   144  C   -0.181622
   145  H    0.220943
   146  H    0.182685
   147  N   -0.848579
   148  H    0.457802
   149  H    0.457068
   150  H    0.386926
   151  O   -0.561098
   152  H    0.423381
 Sum of Mulliken charges =   1.00000

 Dipole moment (field-independent basis, Debye):
    X=             -6.9385    Y=            -13.0423    Z=            -11.2914  Tot=             18.5941
 Quadrupole moment (field-independent basis, Debye-Ang):
   XX=            -49.4755   YY=           -316.8590   ZZ=           -172.2323
   XY=            157.9728   XZ=            287.1104   YZ=            137.1176

 Normal termination of Gaussian 16 at Mon Jul  4 21:01:13 2022.
