 Gaussian 16, Revision C.01,
 Gaussian 16:  ES64L-G16RevC.01  3-Jul-2019

 ----------------------------------------------------------------------
 # B3LYP/6-31G* empiricaldispersion=gd3 guess=read geom=check nosymm in
 tegral(ultrafinegrid)
 ----------------------------------------------------------------------

 ------------------------------------------------------
 Candidate Structure: Conf:102 Charge calc in gas phase
 ------------------------------------------------------
 Structure from the checkpoint file:  "conf-102.chk"
 Charge =  1 Multiplicity = 1

                          Input orientation:
 ---------------------------------------------------------------------
 Center     Atomic      Atomic             Coordinates (Angstroms)
 Number     Number       Type             X           Y           Z
 ---------------------------------------------------------------------
      1          7           0       -7.413865   -5.982811   -0.826532
      2          1           0       -7.031974   -6.653418   -1.494258
      3          1           0       -8.125593   -6.468644   -0.282393
      4          1           0       -6.126351   -5.544305    0.425661
      5          6           0       -8.045121   -4.881490   -1.582927
      6          1           0       -8.967353   -5.218619   -2.086939
      7          6           0       -7.083380   -4.498961   -2.723194
      8          6           0       -8.398897   -3.740727   -0.624264
      9          1           0       -8.967236   -2.947963   -1.121003
     10          1           0       -7.495456   -3.314220   -0.177468
     11          1           0       -9.025854   -4.124607    0.187262
     12          8           0       -6.330047   -5.346242   -3.221221
     13          7           0       -7.105035   -3.211885   -3.135936
     14          1           0       -7.884635   -2.611867   -2.873900
     15          6           0       -6.353902   -2.763446   -4.314127
     16          1           0       -6.294325   -3.604711   -5.014795
     17          6           0       -4.923904   -2.383239   -3.847181
     18          6           0       -7.024614   -1.543019   -4.972228
     19          1           0       -6.559377   -1.381846   -5.949262
     20          1           0       -6.797705   -0.660935   -4.365526
     21          8           0       -4.555790   -1.208863   -3.763546
     22          6           0       -8.542843   -1.650226   -5.052609
     23          7           0       -9.093427   -1.621410   -6.291178
     24          1           0      -10.102114   -1.623830   -6.366423
     25          1           0       -8.550222   -1.464935   -7.126504
     26          8           0       -9.227460   -1.750504   -4.032719
     27          7           0       -4.155404   -3.429275   -3.460307
     28          1           0       -4.586824   -4.351457   -3.507055
     29          6           0       -3.068838   -3.233627   -2.486107
     30          1           0       -3.333634   -2.338736   -1.906461
     31          6           0       -1.723567   -2.917102   -3.161160
     32          6           0       -2.974199   -4.422626   -1.531180
     33          1           0       -2.595191   -5.297235   -2.069082
     34          1           0       -2.235962   -4.191909   -0.761426
     35          8           0       -0.732942   -3.648345   -3.046309
     36          6           0       -4.327912   -4.714476   -0.872881
     37          1           0       -4.812133   -5.574710   -1.337053
     38          1           0       -5.022574   -3.878698   -1.036630
     39          6           0       -4.299584   -4.914278    0.637518
     40          8           0       -3.348252   -4.650634    1.343308
     41          8           0       -5.458133   -5.353923    1.147356
     42          7           0       -1.698946   -1.737808   -3.822391
     43          1           0       -2.559288   -1.189523   -3.854869
     44          6           0       -0.487869   -1.227413   -4.466463
     45          1           0        0.063985   -2.097706   -4.835128
     46          6           0        0.362688   -0.533732   -3.378117
     47          6           0       -0.858777   -0.284442   -5.611915
     48          1           0       -1.335420    0.604078   -5.180919
     49          1           0       -1.609664   -0.793563   -6.230963
     50          8           0        0.453565    0.695785   -3.286131
     51          6           0        0.318143    0.156262   -6.501109
     52          1           0        1.065421    0.626051   -5.852209
     53          6           0        0.977713   -1.023658   -7.230304
     54          1           0        0.247712   -1.555316   -7.854295
     55          1           0        1.420395   -1.750161   -6.539399
     56          1           0        1.780482   -0.672354   -7.888743
     57          6           0       -0.159636    1.213636   -7.505978
     58          1           0       -0.921268    0.798744   -8.179031
     59          1           0       -0.596969    2.079410   -6.995521
     60          1           0        0.671108    1.570798   -8.125198
     61          7           0        0.949235   -1.380170   -2.490238
     62          1           0        0.731121   -2.372138   -2.585382
     63          6           0        1.445927   -0.884523   -1.203665
     64          1           0        0.833389   -0.013181   -0.943918
     65          6           0        2.897641   -0.382345   -1.367086
     66          6           0        1.345335   -1.928982   -0.087756
     67          1           0        2.100371   -2.706004   -0.256732
     68          1           0        1.626960   -1.410574    0.839310
     69          8           0        3.880862   -1.017643   -0.935996
     70          6           0       -0.032688   -2.584545    0.122184
     71          1           0       -0.231144   -3.233937   -0.737380
     72          6           0        0.007885   -3.475217    1.372952
     73          1           0        0.177570   -2.871007    2.275354
     74          1           0        0.813016   -4.217665    1.307023
     75          1           0       -0.940106   -4.006847    1.501404
     76          6           0       -1.173225   -1.561306    0.222147
     77          1           0       -0.978376   -0.828869    1.016840
     78          1           0       -1.317215   -1.010322   -0.715289
     79          1           0       -2.112922   -2.067720    0.468466
     80          7           0        3.010971    0.794618   -2.008841
     81          1           0        2.150157    1.177704   -2.405165
     82          6           0        4.301447    1.396218   -2.364551
     83          1           0        4.961627    0.585558   -2.695890
     84          6           0        4.902480    2.014549   -1.081185
     85          6           0        4.164513    2.433818   -3.491847
     86          1           0        3.585062    3.273208   -3.086659
     87          8           0        4.764993    3.198811   -0.774894
     88          6           0        3.409261    1.872856   -4.719175
     89          1           0        2.347784    1.754775   -4.476927
     90          1           0        3.451000    2.638609   -5.503925
     91          6           0        5.554772    2.969907   -3.872756
     92          1           0        6.223331    2.166910   -4.205243
     93          1           0        6.026438    3.483317   -3.030561
     94          1           0        5.468517    3.690802   -4.692035
     95          6           0        3.946274    0.545766   -5.270705
     96          1           0        3.433310    0.281021   -6.200445
     97          1           0        3.782890   -0.278758   -4.566321
     98          1           0        5.018336    0.594432   -5.491642
     99          7           0        5.598645    1.116838   -0.329072
    100          1           0        5.430363    0.154045   -0.614381
    101          6           0        5.923809    1.286468    1.090239
    102          1           0        5.060088    1.745640    1.597145
    103          6           0        7.090376    2.265159    1.394653
    104          6           0        6.216869   -0.117346    1.685222
    105          1           0        7.113115   -0.062369    2.302657
    106          1           0        6.436771   -0.820599    0.876085
    107          8           0        7.813675    2.095005    2.396804
    108          6           0        5.083708   -0.645616    2.553532
    109          7           0        4.112661   -1.326548    1.934315
    110          1           0        4.055131   -1.421229    0.917566
    111          1           0        3.339063   -1.664295    2.493030
    112          8           0        5.060466   -0.438596    3.783222
    113          7           0        7.227245    3.303716    0.567414
    114          1           0        6.417943    3.517629   -0.022988
    115          6           0        8.154468    4.395232    0.854259
    116          1           0        9.143228    3.957729    1.034957
    117          6           0        7.668080    5.115813    2.127651
    118          6           0        8.224098    5.346961   -0.364474
    119          1           0        7.203176    5.719034   -0.533735
    120          8           0        6.472552    5.227091    2.374758
    121          6           0        9.136687    6.550668   -0.087744
    122          1           0       10.159778    6.224708    0.142106
    123          1           0        9.189573    7.191189   -0.973675
    124          1           0        8.783192    7.163849    0.746041
    125          6           0        8.696762    4.591401   -1.615759
    126          1           0        9.722850    4.226479   -1.481387
    127          1           0        8.689230    5.255959   -2.485992
    128          1           0        8.063435    3.729116   -1.844632
    129          7           0        8.648541    5.575606    2.950745
    130          1           0        9.616137    5.577462    2.652106
    131          6           0        8.347598    6.288911    4.179013
    132          1           0        7.376103    6.779415    4.057599
    133          6           0        9.419182    7.349017    4.384996
    134          6           0        8.275788    5.343156    5.408270
    135          1           0        7.966919    5.931029    6.279912
    136          1           0        9.282163    4.954416    5.617676
    137          8           0       10.441148    7.427482    3.738062
    138          6           0        7.316136    4.178750    5.151966
    139          1           0        7.663339    3.660301    4.254141
    140          1           0        6.321067    4.568326    4.908115
    141          6           0        7.208454    3.178344    6.306668
    142          1           0        8.203565    2.822576    6.612122
    143          1           0        6.768543    3.654098    7.191611
    144          6           0        6.327823    1.984045    5.938044
    145          1           0        6.125809    1.335316    6.794143
    146          1           0        5.369127    2.311561    5.526074
    147          7           0        6.957409    1.115900    4.880230
    148          1           0        6.257006    0.401376    4.513173
    149          1           0        7.780718    0.629387    5.244172
    150          1           0        7.266243    1.639008    4.028839
    151          8           0        9.107283    8.169717    5.404717
    152          1           0        9.841951    8.805819    5.501200
 ---------------------------------------------------------------------

 SCF Done:  E(RB3LYP) =  -3474.05107022     A.U. after    1 cycles

 Alpha  occ. eigenvalues --  -19.27795 -19.22838 -19.22571 -19.22306 -19.21659
 Alpha  occ. eigenvalues --  -19.21285 -19.20974 -19.20021 -19.19854 -19.19831
 Alpha  occ. eigenvalues --  -19.19045 -19.18991 -19.18870 -19.16688 -14.52408
 Alpha  occ. eigenvalues --  -14.45122 -14.45004 -14.44563 -14.44545 -14.43801
 Alpha  occ. eigenvalues --  -14.43643 -14.43528 -14.43152 -14.42976 -14.42541
 Alpha  occ. eigenvalues --  -14.40777 -10.40277 -10.39917 -10.38979 -10.37822
 Alpha  occ. eigenvalues --  -10.37808 -10.36939 -10.36634 -10.36501 -10.36259
 Alpha  occ. eigenvalues --  -10.36199 -10.35507 -10.35187 -10.34610 -10.34525
 Alpha  occ. eigenvalues --  -10.31998 -10.31887 -10.31446 -10.31218 -10.31046
 Alpha  occ. eigenvalues --  -10.30485 -10.30190 -10.30060 -10.29982 -10.29150
 Alpha  occ. eigenvalues --  -10.27531 -10.27519 -10.27351 -10.26823 -10.26421
 Alpha  occ. eigenvalues --  -10.25705 -10.25038 -10.24670 -10.24538 -10.24536
 Alpha  occ. eigenvalues --  -10.24535 -10.24508 -10.24480 -10.24455 -10.24408
 Alpha  occ. eigenvalues --  -10.24115 -10.23615 -10.22904 -10.22870 -10.22525
 Alpha  occ. eigenvalues --  -10.21905  -1.18786  -1.14159  -1.13816  -1.13225
 Alpha  occ. eigenvalues --   -1.12453  -1.12247  -1.12062  -1.11409  -1.11158
 Alpha  occ. eigenvalues --   -1.11137  -1.10792  -1.10201  -1.09890  -1.07818
 Alpha  occ. eigenvalues --   -1.04267  -1.02461  -1.01530  -1.01187  -1.00565
 Alpha  occ. eigenvalues --   -1.00504  -1.00274  -0.99948  -0.99652  -0.98732
 Alpha  occ. eigenvalues --   -0.98107  -0.97063  -0.90098  -0.89353  -0.88403
 Alpha  occ. eigenvalues --   -0.87766  -0.87509  -0.87025  -0.86621  -0.85861
 Alpha  occ. eigenvalues --   -0.85255  -0.83026  -0.81556  -0.81462  -0.81006
 Alpha  occ. eigenvalues --   -0.80349  -0.79646  -0.78352  -0.77694  -0.76316
 Alpha  occ. eigenvalues --   -0.75429  -0.75319  -0.73899  -0.73780  -0.73621
 Alpha  occ. eigenvalues --   -0.72408  -0.71521  -0.71461  -0.70793  -0.70298
 Alpha  occ. eigenvalues --   -0.69724  -0.69236  -0.68955  -0.68052  -0.67548
 Alpha  occ. eigenvalues --   -0.67132  -0.66430  -0.66346  -0.66150  -0.65786
 Alpha  occ. eigenvalues --   -0.65368  -0.65347  -0.65171  -0.64668  -0.64624
 Alpha  occ. eigenvalues --   -0.63354  -0.63248  -0.63030  -0.62294  -0.61699
 Alpha  occ. eigenvalues --   -0.61578  -0.61185  -0.61002  -0.60059  -0.59742
 Alpha  occ. eigenvalues --   -0.59641  -0.59472  -0.59129  -0.58917  -0.58761
 Alpha  occ. eigenvalues --   -0.57868  -0.57796  -0.57403  -0.56910  -0.56637
 Alpha  occ. eigenvalues --   -0.56302  -0.55856  -0.55804  -0.55561  -0.55465
 Alpha  occ. eigenvalues --   -0.55350  -0.55260  -0.54493  -0.54323  -0.53696
 Alpha  occ. eigenvalues --   -0.53643  -0.53203  -0.52983  -0.52524  -0.52264
 Alpha  occ. eigenvalues --   -0.52177  -0.51935  -0.51718  -0.51648  -0.51234
 Alpha  occ. eigenvalues --   -0.51062  -0.50998  -0.50490  -0.50215  -0.50056
 Alpha  occ. eigenvalues --   -0.49945  -0.49695  -0.49584  -0.49176  -0.48923
 Alpha  occ. eigenvalues --   -0.48810  -0.48661  -0.48557  -0.48466  -0.48282
 Alpha  occ. eigenvalues --   -0.48236  -0.47952  -0.47841  -0.47731  -0.47613
 Alpha  occ. eigenvalues --   -0.47322  -0.47218  -0.47056  -0.46791  -0.46733
 Alpha  occ. eigenvalues --   -0.46493  -0.46156  -0.46065  -0.46012  -0.45782
 Alpha  occ. eigenvalues --   -0.45628  -0.45441  -0.45383  -0.45165  -0.45111
 Alpha  occ. eigenvalues --   -0.44872  -0.44652  -0.44603  -0.44542  -0.44386
 Alpha  occ. eigenvalues --   -0.44274  -0.43753  -0.43697  -0.43540  -0.43307
 Alpha  occ. eigenvalues --   -0.43196  -0.43163  -0.43088  -0.42979  -0.42756
 Alpha  occ. eigenvalues --   -0.42085  -0.41856  -0.41726  -0.41359  -0.41268
 Alpha  occ. eigenvalues --   -0.41175  -0.40325  -0.39908  -0.39859  -0.39668
 Alpha  occ. eigenvalues --   -0.39509  -0.39092  -0.38963  -0.38663  -0.38326
 Alpha  occ. eigenvalues --   -0.38272  -0.38197  -0.38088  -0.37878  -0.37791
 Alpha  occ. eigenvalues --   -0.37468  -0.37023  -0.36622  -0.36312  -0.36153
 Alpha  occ. eigenvalues --   -0.35933  -0.35749  -0.35007  -0.34767  -0.34698
 Alpha  occ. eigenvalues --   -0.34364  -0.34244  -0.34159  -0.33297  -0.33263
 Alpha  occ. eigenvalues --   -0.32952  -0.32811  -0.32603  -0.32496  -0.31962
 Alpha  occ. eigenvalues --   -0.31386  -0.31073  -0.30413
 Alpha virt. eigenvalues --   -0.08884  -0.08674  -0.07921  -0.07145  -0.07107
 Alpha virt. eigenvalues --   -0.06982  -0.06489  -0.05388  -0.05310  -0.04971
 Alpha virt. eigenvalues --   -0.04695  -0.04351  -0.02020  -0.00538   0.00019

 Mulliken charges:
               1
     1  N   -0.767840
     2  H    0.345026
     3  H    0.331552
     4  H    0.467772
     5  C   -0.063350
     6  H    0.174307
     7  C    0.632811
     8  C   -0.470825
     9  H    0.177142
    10  H    0.173259
    11  H    0.168335
    12  O   -0.558681
    13  N   -0.622254
    14  H    0.387509
    15  C   -0.058971
    16  H    0.190704
    17  C    0.631444
    18  C   -0.393144
    19  H    0.162177
    20  H    0.219503
    21  O   -0.537160
    22  C    0.614704
    23  N   -0.740625
    24  H    0.358203
    25  H    0.350794
    26  O   -0.526212
    27  N   -0.612443
    28  H    0.381797
    29  C   -0.086500
    30  H    0.184117
    31  C    0.647157
    32  C   -0.301911
    33  H    0.171785
    34  H    0.207759
    35  O   -0.551910
    36  C   -0.431496
    37  H    0.188717
    38  H    0.169376
    39  C    0.598857
    40  O   -0.464941
    41  O   -0.615233
    42  N   -0.628090
    43  H    0.383136
    44  C   -0.056855
    45  H    0.183366
    46  C    0.635662
    47  C   -0.273405
    48  H    0.159935
    49  H    0.140967
    50  O   -0.549276
    51  C   -0.100327
    52  H    0.157682
    53  C   -0.453483
    54  H    0.145488
    55  H    0.143895
    56  H    0.151355
    57  C   -0.445166
    58  H    0.142053
    59  H    0.149457
    60  H    0.145921
    61  N   -0.620253
    62  H    0.386010
    63  C   -0.064190
    64  H    0.184565
    65  C    0.643770
    66  C   -0.301277
    67  H    0.159964
    68  H    0.123062
    69  O   -0.584703
    70  C   -0.098748
    71  H    0.161180
    72  C   -0.474268
    73  H    0.123544
    74  H    0.135006
    75  H    0.210974
    76  C   -0.475008
    77  H    0.139212
    78  H    0.141851
    79  H    0.173604
    80  N   -0.620519
    81  H    0.396061
    82  C   -0.046669
    83  H    0.174502
    84  C    0.621203
    85  C   -0.109460
    86  H    0.162951
    87  O   -0.532496
    88  C   -0.294143
    89  H    0.174217
    90  H    0.146737
    91  C   -0.478803
    92  H    0.147571
    93  H    0.166133
    94  H    0.161782
    95  C   -0.469852
    96  H    0.164697
    97  H    0.147055
    98  H    0.150955
    99  N   -0.623570
   100  H    0.377734
   101  C   -0.050257
   102  H    0.208153
   103  C    0.645860
   104  C   -0.416764
   105  H    0.188276
   106  H    0.193983
   107  O   -0.579695
   108  C    0.607971
   109  N   -0.759419
   110  H    0.419147
   111  H    0.360099
   112  O   -0.562596
   113  N   -0.609814
   114  H    0.407088
   115  C   -0.037955
   116  H    0.161199
   117  C    0.630449
   118  C   -0.113694
   119  H    0.161981
   120  O   -0.535154
   121  C   -0.467086
   122  H    0.147539
   123  H    0.166601
   124  H    0.164582
   125  C   -0.453478
   126  H    0.149637
   127  H    0.162454
   128  H    0.157211
   129  N   -0.608423
   130  H    0.352130
   131  C   -0.044302
   132  H    0.208417
   133  C    0.585272
   134  C   -0.266851
   135  H    0.171590
   136  H    0.144545
   137  O   -0.461630
   138  C   -0.297549
   139  H    0.168805
   140  H    0.174023
   141  C   -0.277801
   142  H    0.148109
   143  H    0.177432
   144  C   -0.177992
   145  H    0.196583
   146  H    0.204586
   147  N   -0.821061
   148  H    0.441726
   149  H    0.380990
   150  H    0.443600
   151  O   -0.559474
   152  H    0.426951
 Sum of Mulliken charges =   1.00000

 Dipole moment (field-independent basis, Debye):
    X=             12.7854    Y=              3.6048    Z=              0.0680  Tot=             13.2840
 Quadrupole moment (field-independent basis, Debye-Ang):
   XX=           -114.0269   YY=           -369.7482   ZZ=           -271.4856
   XY=            118.0958   XZ=            168.9114   YZ=             57.6887

 Normal termination of Gaussian 16 at Mon Jul  4 20:51:51 2022.
