 Gaussian 16, Revision C.01,
 Gaussian 16:  ES64L-G16RevC.01  3-Jul-2019

 ----------------------------------------------------------------------
 # B3LYP/6-31G* empiricaldispersion=gd3 guess=read geom=check nosymm in
 tegral(ultrafinegrid)
 ----------------------------------------------------------------------

 ------------------------------------------------------
 Candidate Structure: Conf:538 Charge calc in gas phase
 ------------------------------------------------------
 Structure from the checkpoint file:  "conf-538.chk"
 Charge =  1 Multiplicity = 1

                          Input orientation:
 ---------------------------------------------------------------------
 Center     Atomic      Atomic             Coordinates (Angstroms)
 Number     Number       Type             X           Y           Z
 ---------------------------------------------------------------------
      1          7           0       -7.603190   -0.345597  -11.603936
      2          1           0       -7.819296   -1.266767  -11.986178
      3          1           0       -7.452968    0.314328  -12.362923
      4          1           0       -8.409406   -0.055524  -11.044701
      5          6           0       -6.452860   -0.395424  -10.679971
      6          1           0       -5.713734   -1.111867  -11.048554
      7          6           0       -6.975751   -0.879343   -9.326765
      8          6           0       -5.800524    0.974104  -10.538384
      9          1           0       -4.962206    0.940805   -9.837867
     10          1           0       -6.524791    1.704371  -10.168066
     11          1           0       -5.427308    1.321159  -11.505099
     12          8           0       -8.166125   -0.807120   -9.048600
     13          7           0       -6.044584   -1.362119   -8.470557
     14          1           0       -5.068341   -1.176181   -8.666498
     15          6           0       -6.291699   -1.443950   -7.040252
     16          1           0       -7.228303   -0.940901   -6.801810
     17          6           0       -5.129292   -0.704831   -6.376237
     18          6           0       -6.335562   -2.880903   -6.534112
     19          1           0       -6.291463   -2.889512   -5.442116
     20          1           0       -5.458943   -3.433654   -6.873382
     21          8           0       -4.082492   -0.492722   -6.965189
     22          6           0       -7.541154   -3.733640   -6.895036
     23          7           0       -8.634510   -3.123082   -7.412911
     24          1           0       -9.354711   -3.763341   -7.701152
     25          1           0       -8.577542   -2.247877   -7.928312
     26          8           0       -7.513630   -4.926184   -6.638537
     27          7           0       -5.343911   -0.311796   -5.085665
     28          1           0       -6.106280   -0.751485   -4.597782
     29          6           0       -4.212918    0.063346   -4.263910
     30          1           0       -3.490727    0.527981   -4.933150
     31          6           0       -3.568704   -1.189539   -3.644082
     32          6           0       -4.601365    1.072637   -3.179244
     33          1           0       -5.526632    0.753540   -2.696625
     34          1           0       -3.816893    1.101842   -2.416608
     35          8           0       -4.157618   -2.255416   -3.530097
     36          6           0       -4.714556    2.456997   -3.802467
     37          1           0       -4.877681    3.223225   -3.039533
     38          1           0       -5.505395    2.514282   -4.552586
     39          6           0       -3.347441    2.731803   -4.480866
     40          8           0       -3.362290    3.071248   -5.674631
     41          8           0       -2.364544    2.583704   -3.731972
     42          7           0       -2.288123   -0.988678   -3.225780
     43          1           0       -1.926746   -0.044397   -3.184336
     44          6           0       -1.602826   -1.966575   -2.417201
     45          1           0       -2.331184   -2.725990   -2.132520
     46          6           0       -1.100251   -1.258980   -1.165123
     47          6           0       -0.443611   -2.630803   -3.158647
     48          1           0        0.100354   -3.265341   -2.455041
     49          1           0        0.251385   -1.851625   -3.480130
     50          8           0       -0.939078   -0.045392   -1.130489
     51          6           0       -0.845086   -3.474930   -4.371239
     52          1           0       -1.431570   -2.848900   -5.046297
     53          6           0        0.409020   -3.926919   -5.113555
     54          1           0        1.034330   -4.543350   -4.462430
     55          1           0        0.999099   -3.068284   -5.441340
     56          1           0        0.152537   -4.516645   -5.996647
     57          6           0       -1.694985   -4.677426   -3.970349
     58          1           0       -1.129498   -5.330733   -3.298928
     59          1           0       -2.615036   -4.379586   -3.466990
     60          1           0       -1.969371   -5.259995   -4.853358
     61          7           0       -0.829662   -2.058669   -0.103720
     62          1           0       -0.793377   -3.053871   -0.238667
     63          6           0       -0.228155   -1.505945    1.104436
     64          1           0       -0.735497   -0.554290    1.273087
     65          6           0        1.257924   -1.254713    0.869263
     66          6           0       -0.451183   -2.421860    2.294176
     67          1           0       -1.529736   -2.562858    2.397544
     68          1           0       -0.005807   -3.395981    2.077526
     69          8           0        2.120063   -2.089324    1.110996
     70          6           0        0.110979   -1.900114    3.624963
     71          1           0        1.203891   -1.911468    3.553103
     72          6           0       -0.327822   -0.468529    3.915279
     73          1           0       -1.418024   -0.381012    3.866028
     74          1           0        0.108533    0.243798    3.211500
     75          1           0       -0.012942   -0.171974    4.918774
     76          6           0       -0.310333   -2.843483    4.747945
     77          1           0       -1.396949   -2.835723    4.861146
     78          1           0        0.004887   -3.868145    4.538949
     79          1           0        0.132967   -2.542984    5.700018
     80          7           0        1.557370   -0.037679    0.354238
     81          1           0        0.820116    0.510029   -0.067072
     82          6           0        2.944613    0.355277    0.202483
     83          1           0        3.427848   -0.378701   -0.451504
     84          6           0        3.637130    0.288134    1.567000
     85          6           0        3.054227    1.753312   -0.453634
     86          1           0        2.435505    1.671987   -1.354880
     87          8           0        3.096571    0.630978    2.607358
     88          6           0        4.487884    2.065019   -0.907900
     89          1           0        5.100953    2.336261   -0.039701
     90          1           0        4.935343    1.158969   -1.333921
     91          6           0        2.510257    2.863014    0.447035
     92          1           0        3.160588    2.985967    1.314929
     93          1           0        1.507988    2.626241    0.806933
     94          1           0        2.468681    3.815698   -0.083542
     95          6           0        4.538626    3.167718   -1.959918
     96          1           0        5.565542    3.374204   -2.264087
     97          1           0        4.106411    4.098060   -1.587819
     98          1           0        3.976440    2.875948   -2.850616
     99          7           0        4.913421   -0.201775    1.532822
    100          1           0        5.374372   -0.231722    0.638243
    101          6           0        5.777303   -0.011425    2.690872
    102          1           0        5.149218   -0.135940    3.569424
    103          6           0        6.381953    1.396288    2.666495
    104          6           0        6.915352   -1.046064    2.702770
    105          1           0        7.515371   -0.910458    1.798613
    106          1           0        6.493268   -2.047171    2.726273
    107          8           0        7.087447    1.744648    1.690055
    108          6           0        7.749114   -0.856981    3.960277
    109          7           0        8.762162    0.049950    3.834166
    110          1           0        8.747999    0.648753    3.023103
    111          1           0        9.056954    0.465430    4.709767
    112          8           0        7.507776   -1.452406    4.992493
    113          7           0        6.115400    2.149565    3.774050
    114          1           0        5.840955    1.664935    4.608526
    115          6           0        6.762218    3.442422    3.944421
    116          1           0        6.816038    3.878270    2.940913
    117          6           0        8.194923    3.195704    4.457300
    118          6           0        5.945839    4.342269    4.880390
    119          1           0        5.740575    3.741710    5.773457
    120          8           0        8.401805    2.737196    5.598629
    121          6           0        6.750322    5.570791    5.308969
    122          1           0        7.046378    6.151007    4.429608
    123          1           0        6.153100    6.209407    5.963431
    124          1           0        7.653477    5.270105    5.845410
    125          6           0        4.627747    4.760799    4.227975
    126          1           0        4.830462    5.412544    3.374534
    127          1           0        4.008021    5.312978    4.937513
    128          1           0        4.057482    3.899266    3.871283
    129          7           0        9.146367    3.483253    3.524107
    130          1           0        8.831989    3.362254    2.569334
    131          6           0       10.571876    3.437110    3.844610
    132          1           0       10.638900    3.066550    4.872986
    133          6           0       11.089519    4.857907    3.845516
    134          6           0       11.355526    2.543168    2.901586
    135          1           0       11.350734    2.984721    1.903196
    136          1           0       10.821316    1.588735    2.841720
    137          8           0       11.801041    5.353037    3.006325
    138          6           0       12.782676    2.284592    3.358577
    139          1           0       12.749497    1.885985    4.375424
    140          1           0       13.330307    3.228381    3.407557
    141          6           0       13.503505    1.314401    2.437401
    142          1           0       12.971036    0.358597    2.416169
    143          1           0       13.484227    1.710547    1.417063
    144          6           0       14.950504    1.069600    2.821349
    145          1           0       15.454870    0.498116    2.040197
    146          1           0       15.464551    2.031670    2.896099
    147          7           0       15.084471    0.353198    4.116242
    148          1           0       16.060325    0.198904    4.370923
    149          1           0       14.621837   -0.555002    4.084631
    150          1           0       14.655035    0.883074    4.873382
    151          8           0       10.616872    5.546327    4.907629
    152          1           0       10.975362    6.439574    4.823684
 ---------------------------------------------------------------------

 SCF Done:  E(RB3LYP) =  -3473.78752985     A.U. after    3 cycles

 Alpha  occ. eigenvalues --  -19.28105 -19.25283 -19.23263 -19.19968 -19.19598
 Alpha  occ. eigenvalues --  -19.16960 -19.16809 -19.15080 -19.14430 -19.14364
 Alpha  occ. eigenvalues --  -19.13394 -19.12798 -19.01338 -19.01052 -14.63972
 Alpha  occ. eigenvalues --  -14.61727 -14.46451 -14.45232 -14.43745 -14.41371
 Alpha  occ. eigenvalues --  -14.40325 -14.39088 -14.39029 -14.38932 -14.37349
 Alpha  occ. eigenvalues --  -14.35955 -10.41863 -10.40952 -10.40918 -10.39979
 Alpha  occ. eigenvalues --  -10.36884 -10.36065 -10.34413 -10.34018 -10.33429
 Alpha  occ. eigenvalues --  -10.33315 -10.32599 -10.32040 -10.31903 -10.31714
 Alpha  occ. eigenvalues --  -10.31059 -10.30490 -10.30045 -10.29999 -10.29862
 Alpha  occ. eigenvalues --  -10.29237 -10.29220 -10.25932 -10.25286 -10.25176
 Alpha  occ. eigenvalues --  -10.24856 -10.24486 -10.24481 -10.22690 -10.22685
 Alpha  occ. eigenvalues --  -10.22592 -10.22134 -10.21621 -10.20471 -10.20427
 Alpha  occ. eigenvalues --  -10.20267 -10.20191 -10.19943 -10.19721 -10.19277
 Alpha  occ. eigenvalues --  -10.19101 -10.18633 -10.18338 -10.18262 -10.17171
 Alpha  occ. eigenvalues --  -10.13307  -1.19682  -1.19144  -1.18930  -1.15732
 Alpha  occ. eigenvalues --   -1.11120  -1.10788  -1.10016  -1.09301  -1.09101
 Alpha  occ. eigenvalues --   -1.07509  -1.06947  -1.06866  -1.05385  -1.04717
 Alpha  occ. eigenvalues --   -1.03203  -1.01890  -1.00234  -0.97207  -0.96706
 Alpha  occ. eigenvalues --   -0.96003  -0.95883  -0.95571  -0.95217  -0.94497
 Alpha  occ. eigenvalues --   -0.94486  -0.93428  -0.92790  -0.90481  -0.87128
 Alpha  occ. eigenvalues --   -0.86329  -0.85312  -0.84940  -0.84733  -0.83650
 Alpha  occ. eigenvalues --   -0.83507  -0.82906  -0.80694  -0.79353  -0.79188
 Alpha  occ. eigenvalues --   -0.78137  -0.77600  -0.77347  -0.76784  -0.76109
 Alpha  occ. eigenvalues --   -0.75468  -0.75085  -0.74740  -0.74322  -0.74119
 Alpha  occ. eigenvalues --   -0.73684  -0.73424  -0.71554  -0.70318  -0.69962
 Alpha  occ. eigenvalues --   -0.69761  -0.68878  -0.68566  -0.67840  -0.67563
 Alpha  occ. eigenvalues --   -0.67134  -0.67123  -0.66512  -0.66222  -0.65580
 Alpha  occ. eigenvalues --   -0.64689  -0.63532  -0.63322  -0.62922  -0.62674
 Alpha  occ. eigenvalues --   -0.62350  -0.62143  -0.61492  -0.61368  -0.61248
 Alpha  occ. eigenvalues --   -0.60041  -0.60010  -0.59242  -0.59152  -0.59055
 Alpha  occ. eigenvalues --   -0.58797  -0.58338  -0.58172  -0.57643  -0.57240
 Alpha  occ. eigenvalues --   -0.56849  -0.56775  -0.56621  -0.56454  -0.56049
 Alpha  occ. eigenvalues --   -0.55657  -0.55367  -0.54599  -0.54389  -0.53659
 Alpha  occ. eigenvalues --   -0.52955  -0.52721  -0.52476  -0.52124  -0.52116
 Alpha  occ. eigenvalues --   -0.51968  -0.51280  -0.51064  -0.50898  -0.50708
 Alpha  occ. eigenvalues --   -0.50601  -0.50379  -0.49697  -0.49619  -0.49307
 Alpha  occ. eigenvalues --   -0.49197  -0.49102  -0.48783  -0.48654  -0.48609
 Alpha  occ. eigenvalues --   -0.48370  -0.48004  -0.47854  -0.47640  -0.47345
 Alpha  occ. eigenvalues --   -0.47032  -0.46543  -0.46455  -0.46011  -0.45926
 Alpha  occ. eigenvalues --   -0.45836  -0.45612  -0.45369  -0.45309  -0.44981
 Alpha  occ. eigenvalues --   -0.44940  -0.44652  -0.44340  -0.44209  -0.44141
 Alpha  occ. eigenvalues --   -0.43443  -0.43367  -0.43094  -0.42995  -0.42931
 Alpha  occ. eigenvalues --   -0.42785  -0.42439  -0.42370  -0.42134  -0.41524
 Alpha  occ. eigenvalues --   -0.41323  -0.41106  -0.41045  -0.40799  -0.40757
 Alpha  occ. eigenvalues --   -0.40647  -0.40580  -0.40268  -0.40154  -0.39933
 Alpha  occ. eigenvalues --   -0.39826  -0.39606  -0.39486  -0.39306  -0.39032
 Alpha  occ. eigenvalues --   -0.38914  -0.38727  -0.37981  -0.37767  -0.37577
 Alpha  occ. eigenvalues --   -0.37526  -0.36865  -0.36667  -0.36536  -0.35710
 Alpha  occ. eigenvalues --   -0.35479  -0.35445  -0.35127  -0.34723  -0.34485
 Alpha  occ. eigenvalues --   -0.34385  -0.34276  -0.34178  -0.34002  -0.33948
 Alpha  occ. eigenvalues --   -0.33661  -0.33588  -0.33237  -0.33155  -0.31777
 Alpha  occ. eigenvalues --   -0.31276  -0.30709  -0.30638  -0.30508  -0.30188
 Alpha  occ. eigenvalues --   -0.29970  -0.29565  -0.29181  -0.28620  -0.28273
 Alpha  occ. eigenvalues --   -0.28057  -0.27213  -0.26351  -0.25831  -0.25823
 Alpha  occ. eigenvalues --   -0.17378  -0.15748  -0.15033
 Alpha virt. eigenvalues --   -0.14515  -0.11502  -0.10739  -0.09249  -0.08165
 Alpha virt. eigenvalues --   -0.07902  -0.06634  -0.06120  -0.05745  -0.04590
 Alpha virt. eigenvalues --   -0.03709  -0.03631  -0.02536  -0.02479  -0.01681

 Mulliken charges:
               1
     1  N   -0.712894
     2  H    0.430563
     3  H    0.424854
     4  H    0.427328
     5  C   -0.150647
     6  H    0.229689
     7  C    0.632990
     8  C   -0.482643
     9  H    0.258312
    10  H    0.204495
    11  H    0.185881
    12  O   -0.531791
    13  N   -0.568424
    14  H    0.362045
    15  C   -0.125455
    16  H    0.197028
    17  C    0.631362
    18  C   -0.357860
    19  H    0.223976
    20  H    0.191589
    21  O   -0.515309
    22  C    0.561339
    23  N   -0.780415
    24  H    0.332741
    25  H    0.379058
    26  O   -0.496877
    27  N   -0.573209
    28  H    0.331088
    29  C   -0.107888
    30  H    0.246409
    31  C    0.602513
    32  C   -0.275121
    33  H    0.102078
    34  H    0.175156
    35  O   -0.554164
    36  C   -0.312978
    37  H    0.124057
    38  H    0.100088
    39  C    0.525361
    40  O   -0.594857
    41  O   -0.597446
    42  N   -0.596330
    43  H    0.381289
    44  C   -0.082622
    45  H    0.180912
    46  C    0.626774
    47  C   -0.250978
    48  H    0.120386
    49  H    0.146293
    50  O   -0.529131
    51  C   -0.068192
    52  H    0.147762
    53  C   -0.442096
    54  H    0.134867
    55  H    0.141754
    56  H    0.137208
    57  C   -0.462964
    58  H    0.123271
    59  H    0.181497
    60  H    0.137295
    61  N   -0.607931
    62  H    0.333421
    63  C   -0.060625
    64  H    0.180839
    65  C    0.645419
    66  C   -0.272516
    67  H    0.137271
    68  H    0.142092
    69  O   -0.549122
    70  C   -0.082700
    71  H    0.159409
    72  C   -0.455917
    73  H    0.134273
    74  H    0.164765
    75  H    0.139632
    76  C   -0.443815
    77  H    0.137320
    78  H    0.140069
    79  H    0.140378
    80  N   -0.632736
    81  H    0.375217
    82  C   -0.019115
    83  H    0.147711
    84  C    0.657442
    85  C   -0.117170
    86  H    0.159635
    87  O   -0.533446
    88  C   -0.276768
    89  H    0.146667
    90  H    0.116735
    91  C   -0.457310
    92  H    0.148798
    93  H    0.167795
    94  H    0.155578
    95  C   -0.449771
    96  H    0.138576
    97  H    0.154934
    98  H    0.159778
    99  N   -0.594961
   100  H    0.334714
   101  C   -0.044100
   102  H    0.197062
   103  C    0.613126
   104  C   -0.363824
   105  H    0.153885
   106  H    0.203825
   107  O   -0.579082
   108  C    0.545656
   109  N   -0.768919
   110  H    0.342704
   111  H    0.345165
   112  O   -0.482379
   113  N   -0.564666
   114  H    0.362059
   115  C   -0.054870
   116  H    0.167646
   117  C    0.615567
   118  C   -0.089957
   119  H    0.148517
   120  O   -0.537589
   121  C   -0.469422
   122  H    0.139978
   123  H    0.161744
   124  H    0.170988
   125  C   -0.459937
   126  H    0.146541
   127  H    0.161402
   128  H    0.181870
   129  N   -0.618889
   130  H    0.364864
   131  C   -0.035290
   132  H    0.196439
   133  C    0.598551
   134  C   -0.292849
   135  H    0.181104
   136  H    0.163054
   137  O   -0.459641
   138  C   -0.293786
   139  H    0.120204
   140  H    0.184041
   141  C   -0.292438
   142  H    0.171685
   143  H    0.209219
   144  C   -0.226106
   145  H    0.228712
   146  H    0.227580
   147  N   -0.682756
   148  H    0.403657
   149  H    0.401310
   150  H    0.402894
   151  O   -0.551685
   152  H    0.423551
 Sum of Mulliken charges =   1.00000

 Dipole moment (field-independent basis, Debye):
    X=             44.2126    Y=              0.3906    Z=            -16.1978  Tot=             47.0879
 Quadrupole moment (field-independent basis, Debye-Ang):
   XX=            671.0491   YY=           -454.3189   ZZ=             82.1764
   XY=             70.0969   XZ=            501.9387   YZ=             69.9813

 Normal termination of Gaussian 16 at Mon Jul  4 21:01:28 2022.
