 Gaussian 16, Revision C.01,
 Gaussian 16:  ES64L-G16RevC.01  3-Jul-2019

 ----------------------------------------------------------------------
 # B3LYP/6-31G* empiricaldispersion=gd3 guess=read geom=check nosymm in
 tegral(ultrafinegrid)
 ----------------------------------------------------------------------

 ------------------------------------------------------
 Candidate Structure: Conf:234 Charge calc in gas phase
 ------------------------------------------------------
 Structure from the checkpoint file:  "conf-234.chk"
 Charge =  1 Multiplicity = 1

                          Input orientation:
 ---------------------------------------------------------------------
 Center     Atomic      Atomic             Coordinates (Angstroms)
 Number     Number       Type             X           Y           Z
 ---------------------------------------------------------------------
      1          7           0       -7.005828   -2.841398    0.286818
      2          1           0       -6.856140   -3.793032   -0.051769
      3          1           0       -7.769610   -2.874839    0.960635
      4          1           0       -5.574889   -2.342427    1.298805
      5          6           0       -7.403094   -2.001240   -0.862426
      6          1           0       -8.441059   -2.214544   -1.169003
      7          6           0       -6.534741   -2.419161   -2.065504
      8          6           0       -7.300442   -0.521622   -0.477549
      9          1           0       -7.671708    0.140852   -1.265603
     10          1           0       -6.265734   -0.250965   -0.245298
     11          1           0       -7.904286   -0.331929    0.415864
     12          8           0       -6.046367   -3.557423   -2.124871
     13          7           0       -6.365358   -1.503788   -3.038031
     14          1           0       -6.683528   -0.537582   -2.952426
     15          6           0       -5.571700   -1.757624   -4.243621
     16          1           0       -5.710158   -2.808892   -4.517872
     17          6           0       -4.078221   -1.511088   -3.932607
     18          6           0       -6.039980   -0.852144   -5.390959
     19          1           0       -7.075702   -1.110111   -5.639182
     20          1           0       -5.425765   -1.053720   -6.272333
     21          8           0       -3.473664   -0.534391   -4.387359
     22          6           0       -6.027018    0.633253   -5.021753
     23          7           0       -5.506626    1.478448   -5.945053
     24          1           0       -5.424903    2.450342   -5.673995
     25          1           0       -4.846929    1.138155   -6.629517
     26          8           0       -6.547003    1.039767   -3.979335
     27          7           0       -3.519103   -2.400153   -3.079167
     28          1           0       -4.118811   -3.147976   -2.735266
     29          6           0       -2.335563   -2.038590   -2.290507
     30          1           0       -2.355941   -0.943079   -2.202320
     31          6           0       -1.005000   -2.375470   -2.989620
     32          6           0       -2.399764   -2.636455   -0.885013
     33          1           0       -2.241221   -3.718499   -0.930423
     34          1           0       -1.570065   -2.232267   -0.301351
     35          8           0       -0.203076   -3.179492   -2.505917
     36          6           0       -3.723775   -2.298188   -0.198067
     37          1           0       -4.479929   -3.051646   -0.420528
     38          1           0       -4.128375   -1.354228   -0.593826
     39          6           0       -3.642925   -2.108657    1.311513
     40          8           0       -4.827166   -2.117611    1.931681
     41          8           0       -2.606969   -1.906151    1.915607
     42          7           0       -0.750643   -1.639915   -4.100477
     43          1           0       -1.455381   -0.959599   -4.383535
     44          6           0        0.598339   -1.547390   -4.676648
     45          1           0        1.037001   -2.547154   -4.621973
     46          6           0        1.371010   -0.587510   -3.745974
     47          6           0        0.542160   -1.048330   -6.118471
     48          1           0        0.068503   -0.058708   -6.119721
     49          1           0       -0.108295   -1.727569   -6.685572
     50          8           0        1.504847    0.615060   -3.998682
     51          6           0        1.912968   -0.942273   -6.815113
     52          1           0        2.523143   -0.235789   -6.237572
     53          6           0        2.649338   -2.289153   -6.872775
     54          1           0        2.042043   -3.046701   -7.385198
     55          1           0        2.895677   -2.673927   -5.876390
     56          1           0        3.591321   -2.191047   -7.423838
     57          6           0        1.730021   -0.364234   -8.225444
     58          1           0        1.122711   -1.034515   -8.847698
     59          1           0        1.231360    0.611668   -8.195253
     60          1           0        2.696556   -0.232874   -8.724638
     61          7           0        1.775360   -1.142101   -2.573123
     62          1           0        1.496988   -2.109248   -2.420917
     63          6           0        1.920846   -0.315262   -1.365877
     64          1           0        1.302407    0.575345   -1.531108
     65          6           0        3.366706    0.201906   -1.209618
     66          6           0        1.426036   -1.082140   -0.133962
     67          1           0        0.590410   -1.722948   -0.437938
     68          1           0        2.231973   -1.740071    0.210314
     69          8           0        4.064100   -0.045185   -0.220124
     70          6           0        0.967404   -0.178971    1.025979
     71          1           0        1.789886    0.502009    1.272169
     72          6           0       -0.272964    0.663259    0.686825
     73          1           0       -1.163730    0.028368    0.611426
     74          1           0       -0.159810    1.216835   -0.251994
     75          1           0       -0.446914    1.405972    1.472002
     76          6           0        0.657986   -1.047781    2.254931
     77          1           0       -0.108259   -1.798440    2.035264
     78          1           0        1.556562   -1.574859    2.612319
     79          1           0        0.225709   -0.427729    3.054750
     80          7           0        3.768456    0.969192   -2.250001
     81          1           0        3.086422    1.150816   -2.986420
     82          6           0        5.095983    1.571366   -2.325769
     83          1           0        5.800267    0.828461   -1.938563
     84          6           0        5.099593    2.771463   -1.360545
     85          6           0        5.498887    1.913373   -3.777303
     86          1           0        5.618231    0.939058   -4.274387
     87          8           0        4.724826    3.909146   -1.670084
     88          6           0        6.863473    2.633498   -3.815584
     89          1           0        7.137659    2.760322   -4.870263
     90          1           0        6.739868    3.644346   -3.407312
     91          6           0        4.442307    2.718393   -4.554710
     92          1           0        4.235296    3.668869   -4.057656
     93          1           0        3.499430    2.173190   -4.674516
     94          1           0        4.815954    2.929253   -5.562944
     95          6           0        8.002368    1.911317   -3.084136
     96          1           0        8.959577    2.408393   -3.274097
     97          1           0        8.095957    0.870884   -3.419831
     98          1           0        7.854491    1.900811   -1.997742
     99          7           0        5.476523    2.442380   -0.100464
    100          1           0        5.552843    1.453763    0.127364
    101          6           0        5.384196    3.355267    1.017176
    102          1           0        5.367160    4.373935    0.619989
    103          6           0        6.582111    3.111969    1.943593
    104          6           0        4.152806    3.068804    1.907545
    105          1           0        4.211908    3.686452    2.811695
    106          1           0        4.224695    2.026381    2.235923
    107          8           0        6.971440    1.958009    2.147905
    108          6           0        2.726160    3.239712    1.391377
    109          7           0        2.521192    3.819157    0.195642
    110          1           0        3.266373    4.064470   -0.458451
    111          1           0        1.561749    3.907549   -0.113041
    112          8           0        1.804137    2.860415    2.124235
    113          7           0        7.064903    4.186195    2.610013
    114          1           0        6.657612    5.097615    2.443057
    115          6           0        7.999943    4.057394    3.741630
    116          1           0        8.671980    3.229121    3.493465
    117          6           0        7.140682    3.674222    4.972600
    118          6           0        8.814793    5.340856    3.959191
    119          1           0        8.110547    6.129111    4.259378
    120          8           0        6.798330    4.471027    5.836659
    121          6           0        9.816784    5.139607    5.106529
    122          1           0       10.522723    4.333088    4.870119
    123          1           0       10.398864    6.053701    5.261377
    124          1           0        9.310067    4.900361    6.044620
    125          6           0        9.541256    5.761767    2.673145
    126          1           0       10.241122    4.981806    2.348689
    127          1           0       10.117860    6.675460    2.849555
    128          1           0        8.854852    5.956682    1.842473
    129          7           0        6.723089    2.370772    4.960391
    130          1           0        6.908823    1.830082    4.116764
    131          6           0        5.679814    1.935843    5.879765
    132          1           0        5.982745    2.248516    6.887765
    133          6           0        5.640666    0.409794    5.863916
    134          6           0        4.303292    2.534825    5.549957
    135          1           0        3.978549    2.110060    4.595573
    136          1           0        4.442948    3.606938    5.388984
    137          8           0        4.652546   -0.270133    5.610100
    138          6           0        3.255579    2.314116    6.654112
    139          1           0        3.426224    3.031625    7.464119
    140          1           0        3.390165    1.324684    7.110218
    141          6           0        1.797953    2.452170    6.176013
    142          1           0        1.125112    2.235601    7.015756
    143          1           0        1.593055    3.486650    5.875832
    144          6           0        1.425785    1.582326    4.972751
    145          1           0        0.342619    1.528808    4.838800
    146          1           0        1.848866    1.943284    4.031044
    147          7           0        1.908649    0.151970    5.145649
    148          1           0        1.634926   -0.410568    4.328696
    149          1           0        1.495652   -0.286816    5.974691
    150          1           0        2.947667    0.090116    5.251500
    151          8           0        6.819300   -0.135738    6.151179
    152          1           0        6.728257   -1.107994    6.106937
 ---------------------------------------------------------------------

 SCF Done:  E(RB3LYP) =  -3474.02763906     A.U. after    2 cycles

 Alpha  occ. eigenvalues --  -19.31590 -19.27287 -19.22214 -19.21460 -19.20606
 Alpha  occ. eigenvalues --  -19.20363 -19.20173 -19.19608 -19.19564 -19.19448
 Alpha  occ. eigenvalues --  -19.19269 -19.19119 -19.18944 -19.18005 -14.56183
 Alpha  occ. eigenvalues --  -14.46276 -14.44652 -14.43892 -14.43679 -14.43675
 Alpha  occ. eigenvalues --  -14.43178 -14.42904 -14.42794 -14.42518 -14.42204
 Alpha  occ. eigenvalues --  -14.41520 -10.44773 -10.38516 -10.37613 -10.37226
 Alpha  occ. eigenvalues --  -10.37094 -10.36996 -10.36975 -10.36537 -10.36427
 Alpha  occ. eigenvalues --  -10.35845 -10.35751 -10.35465 -10.34838 -10.34344
 Alpha  occ. eigenvalues --  -10.32882 -10.32204 -10.31682 -10.31158 -10.30749
 Alpha  occ. eigenvalues --  -10.30382 -10.29976 -10.29955 -10.29795 -10.29493
 Alpha  occ. eigenvalues --  -10.29022 -10.28952 -10.28007 -10.26856 -10.25802
 Alpha  occ. eigenvalues --  -10.25744 -10.25655 -10.25447 -10.25439 -10.25400
 Alpha  occ. eigenvalues --  -10.24887 -10.24484 -10.24344 -10.24327 -10.23722
 Alpha  occ. eigenvalues --  -10.23478 -10.23317 -10.22852 -10.22621 -10.22333
 Alpha  occ. eigenvalues --  -10.22177  -1.23167  -1.14061  -1.13666  -1.13534
 Alpha  occ. eigenvalues --   -1.12519  -1.12185  -1.11653  -1.11570  -1.11296
 Alpha  occ. eigenvalues --   -1.11112  -1.10866  -1.10861  -1.10413  -1.09963
 Alpha  occ. eigenvalues --   -1.05484  -1.02377  -1.01615  -1.01040  -1.00751
 Alpha  occ. eigenvalues --   -1.00218  -0.99822  -0.99272  -0.98509  -0.98101
 Alpha  occ. eigenvalues --   -0.97825  -0.97756  -0.91761  -0.89064  -0.88155
 Alpha  occ. eigenvalues --   -0.87560  -0.87401  -0.87095  -0.86792  -0.86294
 Alpha  occ. eigenvalues --   -0.86008  -0.82814  -0.82688  -0.82188  -0.81049
 Alpha  occ. eigenvalues --   -0.79682  -0.79132  -0.78738  -0.77643  -0.77200
 Alpha  occ. eigenvalues --   -0.75704  -0.75565  -0.75278  -0.74697  -0.73495
 Alpha  occ. eigenvalues --   -0.72608  -0.72054  -0.72004  -0.70978  -0.70072
 Alpha  occ. eigenvalues --   -0.69643  -0.69474  -0.68845  -0.68551  -0.68165
 Alpha  occ. eigenvalues --   -0.67769  -0.67314  -0.67157  -0.66725  -0.66254
 Alpha  occ. eigenvalues --   -0.65774  -0.65528  -0.65441  -0.64895  -0.64483
 Alpha  occ. eigenvalues --   -0.64420  -0.63937  -0.63020  -0.62597  -0.62128
 Alpha  occ. eigenvalues --   -0.61799  -0.61785  -0.61234  -0.60908  -0.60004
 Alpha  occ. eigenvalues --   -0.59791  -0.59334  -0.58873  -0.58677  -0.58526
 Alpha  occ. eigenvalues --   -0.58214  -0.57834  -0.57409  -0.57145  -0.56739
 Alpha  occ. eigenvalues --   -0.56729  -0.56648  -0.56260  -0.56035  -0.55812
 Alpha  occ. eigenvalues --   -0.55742  -0.55494  -0.55308  -0.54466  -0.54082
 Alpha  occ. eigenvalues --   -0.53840  -0.53275  -0.52890  -0.52733  -0.52580
 Alpha  occ. eigenvalues --   -0.52122  -0.52022  -0.51689  -0.51660  -0.51374
 Alpha  occ. eigenvalues --   -0.51350  -0.51031  -0.50892  -0.50662  -0.50358
 Alpha  occ. eigenvalues --   -0.50284  -0.49835  -0.49692  -0.49420  -0.49270
 Alpha  occ. eigenvalues --   -0.49134  -0.48961  -0.48794  -0.48552  -0.48479
 Alpha  occ. eigenvalues --   -0.48207  -0.48094  -0.47790  -0.47682  -0.47549
 Alpha  occ. eigenvalues --   -0.47474  -0.47225  -0.47172  -0.46855  -0.46674
 Alpha  occ. eigenvalues --   -0.46550  -0.46497  -0.46310  -0.46128  -0.45845
 Alpha  occ. eigenvalues --   -0.45621  -0.45564  -0.45389  -0.45197  -0.45153
 Alpha  occ. eigenvalues --   -0.45045  -0.44748  -0.44727  -0.44638  -0.44449
 Alpha  occ. eigenvalues --   -0.44416  -0.44308  -0.44131  -0.43997  -0.43981
 Alpha  occ. eigenvalues --   -0.43852  -0.43545  -0.43519  -0.43328  -0.43153
 Alpha  occ. eigenvalues --   -0.42580  -0.42294  -0.41977  -0.41712  -0.41586
 Alpha  occ. eigenvalues --   -0.40910  -0.40835  -0.40715  -0.40567  -0.40521
 Alpha  occ. eigenvalues --   -0.40222  -0.39956  -0.39105  -0.38856  -0.38697
 Alpha  occ. eigenvalues --   -0.38411  -0.38366  -0.37988  -0.37968  -0.37766
 Alpha  occ. eigenvalues --   -0.36931  -0.36504  -0.35842  -0.35578  -0.35446
 Alpha  occ. eigenvalues --   -0.35235  -0.35075  -0.34740  -0.34604  -0.34536
 Alpha  occ. eigenvalues --   -0.34458  -0.34392  -0.34226  -0.33625  -0.32996
 Alpha  occ. eigenvalues --   -0.32932  -0.32599  -0.32506  -0.31709  -0.31622
 Alpha  occ. eigenvalues --   -0.31617  -0.31075  -0.30447
 Alpha virt. eigenvalues --   -0.11987  -0.08475  -0.07688  -0.07654  -0.07047
 Alpha virt. eigenvalues --   -0.06607  -0.05789  -0.05649  -0.05535  -0.05003
 Alpha virt. eigenvalues --   -0.04728  -0.04149  -0.03467  -0.02748  -0.01839

 Mulliken charges:
               1
     1  N   -0.773856
     2  H    0.348248
     3  H    0.332138
     4  H    0.470091
     5  C   -0.058670
     6  H    0.174449
     7  C    0.637018
     8  C   -0.473030
     9  H    0.181222
    10  H    0.169315
    11  H    0.167990
    12  O   -0.564091
    13  N   -0.629715
    14  H    0.402507
    15  C   -0.079695
    16  H    0.196309
    17  C    0.635991
    18  C   -0.372006
    19  H    0.196723
    20  H    0.167576
    21  O   -0.546841
    22  C    0.629348
    23  N   -0.726816
    24  H    0.352019
    25  H    0.351431
    26  O   -0.535197
    27  N   -0.610224
    28  H    0.380254
    29  C   -0.081103
    30  H    0.176916
    31  C    0.638542
    32  C   -0.299591
    33  H    0.177169
    34  H    0.197301
    35  O   -0.545870
    36  C   -0.437342
    37  H    0.190548
    38  H    0.169794
    39  C    0.604664
    40  O   -0.615375
    41  O   -0.480727
    42  N   -0.621343
    43  H    0.374683
    44  C   -0.057605
    45  H    0.183568
    46  C    0.618921
    47  C   -0.269300
    48  H    0.151169
    49  H    0.142507
    50  O   -0.550184
    51  C   -0.085098
    52  H    0.148214
    53  C   -0.452632
    54  H    0.145905
    55  H    0.141361
    56  H    0.152249
    57  C   -0.445584
    58  H    0.141813
    59  H    0.145264
    60  H    0.149172
    61  N   -0.609101
    62  H    0.379109
    63  C   -0.073637
    64  H    0.172796
    65  C    0.642908
    66  C   -0.308146
    67  H    0.162585
    68  H    0.162178
    69  O   -0.562788
    70  C   -0.077154
    71  H    0.145447
    72  C   -0.470934
    73  H    0.163038
    74  H    0.134948
    75  H    0.157787
    76  C   -0.495701
    77  H    0.215389
    78  H    0.127923
    79  H    0.120913
    80  N   -0.644946
    81  H    0.397394
    82  C   -0.043656
    83  H    0.172390
    84  C    0.624123
    85  C   -0.092094
    86  H    0.136931
    87  O   -0.558963
    88  C   -0.268664
    89  H    0.143808
    90  H    0.157723
    91  C   -0.498683
    92  H    0.181882
    93  H    0.167997
    94  H    0.149249
    95  C   -0.460944
    96  H    0.155457
    97  H    0.148351
    98  H    0.142811
    99  N   -0.568112
   100  H    0.378695
   101  C   -0.092725
   102  H    0.183933
   103  C    0.642594
   104  C   -0.377810
   105  H    0.175855
   106  H    0.190516
   107  O   -0.549437
   108  C    0.619138
   109  N   -0.776337
   110  H    0.404507
   111  H    0.349309
   112  O   -0.538326
   113  N   -0.605633
   114  H    0.345659
   115  C   -0.049418
   116  H    0.186912
   117  C    0.625372
   118  C   -0.102314
   119  H    0.149591
   120  O   -0.519862
   121  C   -0.463931
   122  H    0.145868
   123  H    0.161691
   124  H    0.176573
   125  C   -0.448521
   126  H    0.154218
   127  H    0.164925
   128  H    0.139495
   129  N   -0.637577
   130  H    0.379371
   131  C   -0.009921
   132  H    0.211266
   133  C    0.589302
   134  C   -0.289575
   135  H    0.139954
   136  H    0.191703
   137  O   -0.508554
   138  C   -0.306664
   139  H    0.185190
   140  H    0.133998
   141  C   -0.286290
   142  H    0.163335
   143  H    0.192107
   144  C   -0.231963
   145  H    0.207541
   146  H    0.262006
   147  N   -0.793476
   148  H    0.410071
   149  H    0.397041
   150  H    0.455547
   151  O   -0.519816
   152  H    0.434758
 Sum of Mulliken charges =   1.00000

 Dipole moment (field-independent basis, Debye):
    X=              4.0559    Y=              3.1752    Z=              7.4789  Tot=              9.0811
 Quadrupole moment (field-independent basis, Debye-Ang):
   XX=           -263.5636   YY=           -398.2711   ZZ=           -271.2184
   XY=             46.7287   XZ=             83.5616   YZ=             13.0246

 Normal termination of Gaussian 16 at Mon Jul  4 20:52:42 2022.
