 Gaussian 16, Revision C.01,
 Gaussian 16:  ES64L-G16RevC.01  3-Jul-2019

 ----------------------------------------------------------------------
 # B3LYP/6-31G* empiricaldispersion=gd3 guess=read geom=check nosymm in
 tegral(ultrafinegrid)
 ----------------------------------------------------------------------

 ------------------------------------------------------
 Candidate Structure: Conf:172 Charge calc in gas phase
 ------------------------------------------------------
 Structure from the checkpoint file:  "conf-172.chk"
 Charge =  1 Multiplicity = 1

                          Input orientation:
 ---------------------------------------------------------------------
 Center     Atomic      Atomic             Coordinates (Angstroms)
 Number     Number       Type             X           Y           Z
 ---------------------------------------------------------------------
      1          7           0       -9.757105   -6.745823   -4.655264
      2          1           0       -9.523859   -7.448809   -5.357721
      3          1           0      -10.693169   -6.915104   -4.295119
      4          1           0       -9.072845   -6.833774   -3.898902
      5          6           0       -9.609849   -5.374997   -5.184607
      6          1           0       -9.931541   -5.351825   -6.232291
      7          6           0       -8.127077   -5.020453   -5.113966
      8          6           0      -10.426773   -4.379046   -4.374846
      9          1           0      -10.313157   -3.367115   -4.766441
     10          1           0      -10.097903   -4.378654   -3.332380
     11          1           0      -11.487208   -4.642835   -4.399456
     12          8           0       -7.389829   -5.584913   -4.307332
     13          7           0       -7.707838   -4.031743   -5.935575
     14          1           0       -8.314691   -3.785933   -6.707939
     15          6           0       -6.281560   -3.811215   -6.171571
     16          1           0       -5.783652   -4.782604   -6.045959
     17          6           0       -5.727796   -2.830407   -5.130995
     18          6           0       -6.044357   -3.261722   -7.577704
     19          1           0       -4.974667   -3.211484   -7.774340
     20          1           0       -6.439107   -2.247851   -7.636066
     21          8           0       -5.247431   -1.739240   -5.437022
     22          6           0       -6.772048   -4.093796   -8.614708
     23          7           0       -5.990897   -4.837246   -9.436463
     24          1           0       -6.456657   -5.443615  -10.089359
     25          1           0       -5.002388   -4.919478   -9.289626
     26          8           0       -7.989005   -4.067775   -8.715654
     27          7           0       -5.807093   -3.233221   -3.847686
     28          1           0       -6.178402   -4.152359   -3.641106
     29          6           0       -5.313287   -2.382319   -2.782346
     30          1           0       -5.480939   -1.351701   -3.116637
     31          6           0       -3.809165   -2.588388   -2.613506
     32          6           0       -6.059525   -2.613973   -1.474016
     33          1           0       -7.130927   -2.546658   -1.673501
     34          1           0       -5.845863   -3.621605   -1.115635
     35          8           0       -3.317078   -3.181270   -1.667997
     36          6           0       -5.684689   -1.577737   -0.413997
     37          1           0       -5.891713   -0.571986   -0.789720
     38          1           0       -4.634808   -1.632992   -0.145218
     39          6           0       -6.565154   -1.749548    0.859863
     40          8           0       -5.963605   -1.795049    1.945745
     41          8           0       -7.781793   -1.791633    0.644609
     42          7           0       -3.026220   -2.109674   -3.614793
     43          1           0       -3.457835   -1.529648   -4.320517
     44          6           0       -1.634876   -1.888497   -3.257381
     45          1           0       -1.169543   -2.865814   -3.104284
     46          6           0       -1.619625   -1.122441   -1.936986
     47          6           0       -0.908285   -1.108580   -4.352046
     48          1           0       -1.491448   -0.207731   -4.560791
     49          1           0       -0.918895   -1.717389   -5.260415
     50          8           0       -2.338981   -0.142592   -1.754894
     51          6           0        0.529163   -0.681962   -4.043143
     52          1           0        0.496688   -0.045317   -3.149290
     53          6           0        1.453522   -1.862446   -3.773957
     54          1           0        1.480422   -2.527487   -4.641567
     55          1           0        1.159268   -2.448467   -2.904176
     56          1           0        2.475334   -1.512541   -3.588574
     57          6           0        1.069827    0.152698   -5.198525
     58          1           0        1.114952   -0.447898   -6.109080
     59          1           0        0.438660    1.022209   -5.391860
     60          1           0        2.078994    0.510544   -4.977114
     61          7           0       -0.765414   -1.623185   -1.010455
     62          1           0       -0.227964   -2.448187   -1.214753
     63          6           0       -0.364637   -0.884292    0.166757
     64          1           0       -0.774845    0.120805    0.063647
     65          6           0        1.165357   -0.828574    0.156288
     66          6           0       -0.874596   -1.536811    1.449762
     67          1           0       -0.439058   -2.533563    1.519922
     68          1           0       -0.506251   -0.967268    2.307820
     69          8           0        1.833620   -1.824725   -0.119797
     70          6           0       -2.400490   -1.633270    1.537612
     71          1           0       -2.749816   -2.137671    0.635584
     72          6           0       -2.827187   -2.465796    2.741918
     73          1           0       -2.463372   -2.005532    3.663956
     74          1           0       -2.418478   -3.476764    2.679292
     75          1           0       -3.910713   -2.538526    2.800841
     76          6           0       -3.042124   -0.249053    1.597511
     77          1           0       -2.713881    0.274676    2.499397
     78          1           0       -2.776288    0.349325    0.722546
     79          1           0       -4.128793   -0.331644    1.624255
     80          7           0        1.710426    0.371893    0.477625
     81          1           0        1.154689    1.066377    0.960295
     82          6           0        3.133106    0.522338    0.699583
     83          1           0        3.553980   -0.467893    0.892780
     84          6           0        3.300130    1.418532    1.928057
     85          6           0        3.893385    1.105690   -0.519451
     86          1           0        4.948448    1.074087   -0.223319
     87          8           0        2.373576    2.053889    2.403397
     88          6           0        3.532433    2.566133   -0.803789
     89          1           0        2.559404    2.591766   -1.299630
     90          1           0        3.403707    3.097877    0.146655
     91          6           0        3.714813    0.219882   -1.747319
     92          1           0        2.714992    0.333524   -2.169232
     93          1           0        3.854117   -0.829878   -1.489034
     94          1           0        4.428392    0.487516   -2.528790
     95          6           0        4.575289    3.287652   -1.647829
     96          1           0        4.269143    4.316012   -1.848615
     97          1           0        4.740086    2.798532   -2.609469
     98          1           0        5.536383    3.321841   -1.123784
     99          7           0        4.564588    1.494283    2.418096
    100          1           0        5.324764    1.024040    1.951912
    101          6           0        4.924797    2.535370    3.362633
    102          1           0        4.131803    3.284210    3.323678
    103          6           0        6.244818    3.154360    2.928742
    104          6           0        5.019490    2.009544    4.804824
    105          1           0        5.615027    1.096966    4.827462
    106          1           0        4.011684    1.794483    5.160905
    107          8           0        7.194551    2.468113    2.573582
    108          6           0        5.732868    3.021320    5.681485
    109          7           0        5.076144    4.195134    5.880634
    110          1           0        4.152755    4.327190    5.518187
    111          1           0        5.635131    4.994849    6.131250
    112          8           0        6.843328    2.804893    6.134060
    113          7           0        6.281818    4.508907    2.972755
    114          1           0        5.488546    4.996130    3.348158
    115          6           0        7.524732    5.225837    2.828990
    116          1           0        8.293210    4.456677    2.763128
    117          6           0        7.825921    6.091743    4.082468
    118          6           0        7.590596    6.058063    1.532814
    119          1           0        8.619500    6.434273    1.476545
    120          8           0        6.954518    6.629705    4.810388
    121          6           0        7.341179    5.182273    0.304708
    122          1           0        6.277988    4.937814    0.220478
    123          1           0        7.631912    5.713565   -0.602713
    124          1           0        7.901233    4.247152    0.362128
    125          6           0        6.630929    7.242322    1.589551
    126          1           0        5.596594    6.890904    1.542847
    127          1           0        6.799298    7.916711    0.748513
    128          1           0        6.758340    7.792716    2.525920
    129          7           0        9.168234    6.258757    4.282323
    130          1           0        9.827169    5.945274    3.589636
    131          6           0        9.658422    7.064394    5.376555
    132          1           0        8.860301    7.746034    5.687106
    133          6           0       10.809627    7.897209    4.878180
    134          6           0       10.070438    6.243803    6.605779
    135          1           0       10.364008    6.958541    7.372103
    136          1           0       10.948577    5.637301    6.380118
    137          8           0       11.407515    7.720793    3.847948
    138          6           0        8.928290    5.367741    7.106791
    139          1           0        8.759354    4.544669    6.409901
    140          1           0        8.008524    5.962258    7.096671
    141          6           0        9.165003    4.774269    8.490716
    142          1           0        8.396897    4.019897    8.689322
    143          1           0       10.127603    4.251263    8.503896
    144          6           0        9.147621    5.791254    9.613331
    145          1           0        9.938646    6.525949    9.459454
    146          1           0        8.197488    6.330518    9.599691
    147          7           0        9.341882    5.156323   10.941376
    148          1           0        9.335449    5.837769   11.700486
    149          1           0       10.232595    4.662750   10.979443
    150          1           0        8.607818    4.475877   11.131189
    151          8           0       11.113945    8.879110    5.749016
    152          1           0       11.864032    9.351102    5.365221
 ---------------------------------------------------------------------

 SCF Done:  E(RB3LYP) =  -3473.79188581     A.U. after    3 cycles

 Alpha  occ. eigenvalues --  -19.28666 -19.24955 -19.23236 -19.20669 -19.20035
 Alpha  occ. eigenvalues --  -19.18282 -19.18258 -19.17139 -19.16424 -19.13543
 Alpha  occ. eigenvalues --  -19.11794 -19.11082 -19.00429 -18.99941 -14.62654
 Alpha  occ. eigenvalues --  -14.61345 -14.46970 -14.45195 -14.44071 -14.43109
 Alpha  occ. eigenvalues --  -14.42231 -14.41616 -14.39635 -14.38146 -14.35777
 Alpha  occ. eigenvalues --  -14.35576 -10.41588 -10.41072 -10.39736 -10.39479
 Alpha  occ. eigenvalues --  -10.37818 -10.37365 -10.35547 -10.35361 -10.33793
 Alpha  occ. eigenvalues --  -10.33571 -10.33031 -10.32368 -10.32249 -10.31499
 Alpha  occ. eigenvalues --  -10.30306 -10.30175 -10.30143 -10.29317 -10.28881
 Alpha  occ. eigenvalues --  -10.28336 -10.28242 -10.27467 -10.26466 -10.25887
 Alpha  occ. eigenvalues --  -10.25617 -10.23718 -10.23102 -10.23065 -10.23009
 Alpha  occ. eigenvalues --  -10.22986 -10.22691 -10.21464 -10.21018 -10.20920
 Alpha  occ. eigenvalues --  -10.20494 -10.19909 -10.19465 -10.18987 -10.18196
 Alpha  occ. eigenvalues --  -10.17143 -10.16161 -10.14921 -10.12692 -10.12183
 Alpha  occ. eigenvalues --  -10.11574  -1.20193  -1.18487  -1.17871  -1.15245
 Alpha  occ. eigenvalues --   -1.12377  -1.11539  -1.11071  -1.10648  -1.10232
 Alpha  occ. eigenvalues --   -1.09566  -1.08657  -1.05521  -1.04775  -1.03890
 Alpha  occ. eigenvalues --   -1.02675  -1.01795  -1.00079  -0.99103  -0.98638
 Alpha  occ. eigenvalues --   -0.97496  -0.96270  -0.95210  -0.94271  -0.94209
 Alpha  occ. eigenvalues --   -0.92855  -0.92788  -0.92663  -0.89410  -0.87320
 Alpha  occ. eigenvalues --   -0.86881  -0.85520  -0.85399  -0.84128  -0.83775
 Alpha  occ. eigenvalues --   -0.83554  -0.80713  -0.79852  -0.79229  -0.79010
 Alpha  occ. eigenvalues --   -0.78013  -0.77694  -0.76228  -0.76065  -0.75490
 Alpha  occ. eigenvalues --   -0.75124  -0.74971  -0.74901  -0.74362  -0.74037
 Alpha  occ. eigenvalues --   -0.73735  -0.72108  -0.70898  -0.70464  -0.70208
 Alpha  occ. eigenvalues --   -0.69451  -0.68557  -0.68036  -0.67733  -0.67056
 Alpha  occ. eigenvalues --   -0.66801  -0.66508  -0.66427  -0.65408  -0.65148
 Alpha  occ. eigenvalues --   -0.64669  -0.64128  -0.63947  -0.63752  -0.63273
 Alpha  occ. eigenvalues --   -0.62625  -0.62171  -0.61995  -0.61301  -0.61076
 Alpha  occ. eigenvalues --   -0.60502  -0.60272  -0.59955  -0.59283  -0.59100
 Alpha  occ. eigenvalues --   -0.58906  -0.58666  -0.58585  -0.58081  -0.56733
 Alpha  occ. eigenvalues --   -0.56635  -0.56484  -0.55909  -0.55668  -0.55102
 Alpha  occ. eigenvalues --   -0.54859  -0.54459  -0.54225  -0.53940  -0.53684
 Alpha  occ. eigenvalues --   -0.53350  -0.52836  -0.52746  -0.52456  -0.52193
 Alpha  occ. eigenvalues --   -0.52111  -0.51675  -0.51499  -0.50957  -0.50714
 Alpha  occ. eigenvalues --   -0.50661  -0.50447  -0.50306  -0.50211  -0.50055
 Alpha  occ. eigenvalues --   -0.49881  -0.49674  -0.49092  -0.49015  -0.48723
 Alpha  occ. eigenvalues --   -0.48450  -0.48302  -0.47781  -0.47540  -0.47356
 Alpha  occ. eigenvalues --   -0.47095  -0.46943  -0.46783  -0.46622  -0.45958
 Alpha  occ. eigenvalues --   -0.45809  -0.45642  -0.45288  -0.45277  -0.45148
 Alpha  occ. eigenvalues --   -0.44697  -0.44683  -0.44234  -0.44169  -0.43972
 Alpha  occ. eigenvalues --   -0.43923  -0.43646  -0.43449  -0.43360  -0.42712
 Alpha  occ. eigenvalues --   -0.42573  -0.42390  -0.42037  -0.41957  -0.41620
 Alpha  occ. eigenvalues --   -0.41344  -0.41007  -0.40952  -0.40740  -0.40656
 Alpha  occ. eigenvalues --   -0.40497  -0.40264  -0.39950  -0.39400  -0.39359
 Alpha  occ. eigenvalues --   -0.39195  -0.38906  -0.38705  -0.38465  -0.38100
 Alpha  occ. eigenvalues --   -0.37985  -0.37612  -0.37031  -0.37014  -0.36648
 Alpha  occ. eigenvalues --   -0.36488  -0.36225  -0.35573  -0.35397  -0.35270
 Alpha  occ. eigenvalues --   -0.34963  -0.34859  -0.34718  -0.34619  -0.34505
 Alpha  occ. eigenvalues --   -0.34355  -0.34115  -0.33938  -0.33871  -0.33471
 Alpha  occ. eigenvalues --   -0.33058  -0.32848  -0.32179  -0.31745  -0.31581
 Alpha  occ. eigenvalues --   -0.31135  -0.30762  -0.30594  -0.30206  -0.29723
 Alpha  occ. eigenvalues --   -0.29011  -0.28871  -0.28599  -0.28036  -0.27790
 Alpha  occ. eigenvalues --   -0.27453  -0.26643  -0.25317  -0.24548  -0.24162
 Alpha  occ. eigenvalues --   -0.16155  -0.14480  -0.13996
 Alpha virt. eigenvalues --   -0.13466  -0.11660  -0.10335  -0.08215  -0.07247
 Alpha virt. eigenvalues --   -0.06878  -0.06717  -0.05850  -0.05707  -0.05164
 Alpha virt. eigenvalues --   -0.04294  -0.04131  -0.03918  -0.03045  -0.01984

 Mulliken charges:
               1
     1  N   -0.713933
     2  H    0.428222
     3  H    0.426066
     4  H    0.432625
     5  C   -0.149298
     6  H    0.226528
     7  C    0.637406
     8  C   -0.475332
     9  H    0.234253
    10  H    0.223729
    11  H    0.184487
    12  O   -0.528038
    13  N   -0.589987
    14  H    0.370551
    15  C   -0.084983
    16  H    0.188756
    17  C    0.652043
    18  C   -0.384632
    19  H    0.184210
    20  H    0.221218
    21  O   -0.539947
    22  C    0.591159
    23  N   -0.733331
    24  H    0.352396
    25  H    0.354649
    26  O   -0.528962
    27  N   -0.625216
    28  H    0.367291
    29  C   -0.073683
    30  H    0.182639
    31  C    0.643292
    32  C   -0.263093
    33  H    0.126309
    34  H    0.133530
    35  O   -0.518577
    36  C   -0.371130
    37  H    0.118078
    38  H    0.174344
    39  C    0.550619
    40  O   -0.563274
    41  O   -0.594391
    42  N   -0.628977
    43  H    0.356139
    44  C   -0.010701
    45  H    0.145968
    46  C    0.631110
    47  C   -0.286281
    48  H    0.151807
    49  H    0.128373
    50  O   -0.546816
    51  C   -0.089895
    52  H    0.145385
    53  C   -0.450960
    54  H    0.128634
    55  H    0.152478
    56  H    0.152547
    57  C   -0.442665
    58  H    0.135647
    59  H    0.145115
    60  H    0.138669
    61  N   -0.576356
    62  H    0.343499
    63  C   -0.077057
    64  H    0.173768
    65  C    0.623879
    66  C   -0.245780
    67  H    0.132976
    68  H    0.115637
    69  O   -0.551325
    70  C   -0.085047
    71  H    0.178908
    72  C   -0.464097
    73  H    0.103744
    74  H    0.106009
    75  H    0.220207
    76  C   -0.488563
    77  H    0.096678
    78  H    0.146330
    79  H    0.209581
    80  N   -0.611577
    81  H    0.358452
    82  C   -0.069600
    83  H    0.181111
    84  C    0.616505
    85  C   -0.070845
    86  H    0.110934
    87  O   -0.534288
    88  C   -0.269176
    89  H    0.153819
    90  H    0.134607
    91  C   -0.472400
    92  H    0.171225
    93  H    0.176527
    94  H    0.142524
    95  C   -0.459281
    96  H    0.146139
    97  H    0.153708
    98  H    0.147267
    99  N   -0.609915
   100  H    0.354381
   101  C   -0.041432
   102  H    0.165323
   103  C    0.600914
   104  C   -0.346210
   105  H    0.191968
   106  H    0.189787
   107  O   -0.527895
   108  C    0.563545
   109  N   -0.744494
   110  H    0.346453
   111  H    0.356206
   112  O   -0.519187
   113  N   -0.585356
   114  H    0.338911
   115  C   -0.074292
   116  H    0.189512
   117  C    0.632457
   118  C   -0.078956
   119  H    0.131825
   120  O   -0.569023
   121  C   -0.457309
   122  H    0.161668
   123  H    0.158493
   124  H    0.165757
   125  C   -0.465215
   126  H    0.148495
   127  H    0.161839
   128  H    0.160454
   129  N   -0.594636
   130  H    0.360845
   131  C   -0.044975
   132  H    0.208300
   133  C    0.582736
   134  C   -0.282238
   135  H    0.148901
   136  H    0.161841
   137  O   -0.449984
   138  C   -0.289831
   139  H    0.217143
   140  H    0.165458
   141  C   -0.293735
   142  H    0.185569
   143  H    0.159082
   144  C   -0.221480
   145  H    0.216343
   146  H    0.222418
   147  N   -0.668206
   148  H    0.389260
   149  H    0.386846
   150  H    0.391077
   151  O   -0.566777
   152  H    0.426525
 Sum of Mulliken charges =   1.00000

 Dipole moment (field-independent basis, Debye):
    X=             23.9111    Y=              4.4638    Z=             11.7817  Tot=             27.0273
 Quadrupole moment (field-independent basis, Debye-Ang):
   XX=            183.1576   YY=            -98.0957   ZZ=            161.6936
   XY=            471.7938   XZ=            629.1523   YZ=            405.4897

 Normal termination of Gaussian 16 at Mon Jul  4 20:53:02 2022.
