 Gaussian 16, Revision C.01,
 Gaussian 16:  ES64L-G16RevC.01  3-Jul-2019

 ----------------------------------------------------------------------
 # B3LYP/6-31G* empiricaldispersion=gd3 guess=read geom=check nosymm in
 tegral(ultrafinegrid)
 ----------------------------------------------------------------------

 ------------------------------------------------------
 Candidate Structure: Conf:217 Charge calc in gas phase
 ------------------------------------------------------
 Structure from the checkpoint file:  "conf-217.chk"
 Charge =  1 Multiplicity = 1

                          Input orientation:
 ---------------------------------------------------------------------
 Center     Atomic      Atomic             Coordinates (Angstroms)
 Number     Number       Type             X           Y           Z
 ---------------------------------------------------------------------
      1          7           0       -6.207765    0.610834  -10.347007
      2          1           0       -5.409274    0.089485   -9.884220
      3          1           0       -5.861419    1.219414  -11.093087
      4          1           0       -6.819818   -0.102955  -10.758806
      5          6           0       -6.999093    1.367154   -9.310071
      6          1           0       -6.367865    2.175890   -8.929854
      7          6           0       -7.230684    0.306060   -8.225562
      8          6           0       -8.292920    1.915275   -9.886033
      9          1           0       -8.827172    2.486210   -9.122485
     10          1           0       -8.935143    1.092832  -10.212569
     11          1           0       -8.095720    2.575457  -10.736960
     12          8           0       -8.008639   -0.616429   -8.443404
     13          7           0       -6.441110    0.405305   -7.136638
     14          1           0       -5.741804    1.136033   -7.047996
     15          6           0       -6.154751   -0.766248   -6.330572
     16          1           0       -7.093696   -1.192754   -5.969882
     17          6           0       -5.258569   -0.313091   -5.178538
     18          6           0       -5.396581   -1.839777   -7.169627
     19          1           0       -6.088456   -2.276090   -7.890978
     20          1           0       -5.024177   -2.626657   -6.507709
     21          8           0       -4.546908    0.687759   -5.309255
     22          6           0       -4.256344   -1.189035   -7.944827
     23          7           0       -3.058569   -1.129730   -7.345986
     24          1           0       -2.339257   -0.602192   -7.819503
     25          1           0       -2.913166   -1.338680   -6.362972
     26          8           0       -4.428620   -0.702265   -9.077080
     27          7           0       -5.253934   -1.113195   -4.098404
     28          1           0       -5.763138   -1.987003   -4.121202
     29          6           0       -4.314507   -0.905725   -2.996925
     30          1           0       -4.107688    0.168410   -2.991133
     31          6           0       -2.996127   -1.637797   -3.289737
     32          6           0       -4.864144   -1.325956   -1.639088
     33          1           0       -5.183186   -2.372455   -1.664429
     34          1           0       -4.025973   -1.269393   -0.939100
     35          8           0       -2.692818   -2.681155   -2.727883
     36          6           0       -5.983317   -0.443561   -1.088736
     37          1           0       -6.910636   -0.573993   -1.656647
     38          1           0       -5.680500    0.609079   -1.109489
     39          6           0       -6.189528   -0.904286    0.386462
     40          8           0       -5.508682   -0.284433    1.245541
     41          8           0       -6.955154   -1.876218    0.547636
     42          7           0       -2.158847   -1.046278   -4.217159
     43          1           0       -2.431504   -0.129341   -4.562316
     44          6           0       -0.707361   -1.276836   -4.049497
     45          1           0       -0.609377   -2.341706   -3.832096
     46          6           0       -0.257290   -0.463768   -2.818362
     47          6           0        0.100299   -0.934489   -5.295497
     48          1           0       -0.107600    0.101305   -5.588997
     49          1           0       -0.248608   -1.594282   -6.103175
     50          8           0        0.333640    0.609844   -2.917283
     51          6           0        1.625418   -1.098395   -5.141055
     52          1           0        1.933429   -0.393518   -4.362008
     53          6           0        2.046984   -2.502632   -4.698378
     54          1           0        1.841329   -3.243595   -5.480731
     55          1           0        1.542921   -2.814907   -3.779715
     56          1           0        3.121848   -2.518151   -4.488664
     57          6           0        2.318178   -0.699426   -6.447562
     58          1           0        1.981957   -1.331550   -7.279288
     59          1           0        2.111602    0.344665   -6.707165
     60          1           0        3.404922   -0.815818   -6.368608
     61          7           0       -0.665686   -0.968176   -1.625887
     62          1           0       -1.040441   -1.908122   -1.614691
     63          6           0       -0.074399   -0.481220   -0.395545
     64          1           0       -0.219078    0.602502   -0.364559
     65          6           0        1.429686   -0.792009   -0.430107
     66          6           0       -0.749830   -1.133477    0.820508
     67          1           0       -0.440636   -2.186077    0.866656
     68          1           0       -0.362087   -0.652243    1.727326
     69          8           0        1.866864   -1.813551   -0.955267
     70          6           0       -2.292186   -1.046336    0.822268
     71          1           0       -2.659980   -1.641993   -0.024659
     72          6           0       -2.853926   -1.673199    2.102013
     73          1           0       -2.515281   -1.115950    2.984196
     74          1           0       -2.532197   -2.715492    2.216626
     75          1           0       -3.947628   -1.648591    2.085071
     76          6           0       -2.808946    0.388163    0.667686
     77          1           0       -2.451858    1.011295    1.498809
     78          1           0       -2.461100    0.845157   -0.268200
     79          1           0       -3.908072    0.412177    0.667405
     80          7           0        2.221728    0.144528    0.157142
     81          1           0        1.806339    0.890626    0.699585
     82          6           0        3.638238   -0.077384    0.373393
     83          1           0        3.845923   -1.126188    0.148839
     84          6           0        3.925115    0.210882    1.843652
     85          6           0        4.513574    0.810671   -0.551737
     86          1           0        4.215040    1.849466   -0.357608
     87          8           0        3.365441    1.145298    2.433294
     88          6           0        4.219550    0.529654   -2.041615
     89          1           0        3.150168    0.677578   -2.230522
     90          1           0        4.740476    1.299966   -2.624788
     91          6           0        6.011044    0.674090   -0.234242
     92          1           0        6.323879   -0.374632   -0.176215
     93          1           0        6.275085    1.154471    0.712846
     94          1           0        6.605114    1.150773   -1.021415
     95          6           0        4.645172   -0.855856   -2.539108
     96          1           0        4.368403   -0.991923   -3.590521
     97          1           0        4.145369   -1.648888   -1.973536
     98          1           0        5.727971   -0.999966   -2.460830
     99          7           0        4.846922   -0.575243    2.442094
    100          1           0        5.432858   -1.201570    1.895034
    101          6           0        5.354740   -0.271256    3.777766
    102          1           0        4.500196    0.089670    4.356199
    103          6           0        6.403488    0.857832    3.706393
    104          6           0        5.913160   -1.545169    4.419036
    105          1           0        5.122147   -2.301545    4.391252
    106          1           0        6.162517   -1.359991    5.467768
    107          8           0        7.621201    0.642011    3.761587
    108          6           0        7.096294   -2.116449    3.640086
    109          7           0        8.154355   -2.532968    4.382820
    110          1           0        8.227715   -2.321157    5.363756
    111          1           0        8.977358   -2.848272    3.891016
    112          8           0        7.069106   -2.232754    2.418338
    113          7           0        5.872952    2.093701    3.552671
    114          1           0        4.868446    2.159899    3.409012
    115          6           0        6.718842    3.253854    3.257158
    116          1           0        7.489498    2.916553    2.550910
    117          6           0        7.407723    3.707125    4.559436
    118          6           0        5.934208    4.411262    2.615466
    119          1           0        5.221960    4.773574    3.364904
    120          8           0        6.963759    4.583757    5.290660
    121          6           0        6.895085    5.552442    2.250821
    122          1           0        7.622410    5.213239    1.503451
    123          1           0        6.338859    6.391615    1.823006
    124          1           0        7.441597    5.916757    3.124175
    125          6           0        5.169206    3.956005    1.366533
    126          1           0        5.853967    3.509922    0.634721
    127          1           0        4.684350    4.814038    0.891293
    128          1           0        4.390661    3.222830    1.591021
    129          7           0        8.582732    3.071912    4.831659
    130          1           0        8.747581    2.186491    4.359649
    131          6           0        9.245702    3.338102    6.091932
    132          1           0        8.548092    3.211447    6.929052
    133          6           0        9.725403    4.784167    6.190524
    134          6           0       10.438084    2.382825    6.254837
    135          1           0       11.163774    2.585840    5.459043
    136          1           0       10.074337    1.357895    6.107704
    137          8           0        9.683154    5.440918    7.205593
    138          6           0       11.097518    2.508503    7.629864
    139          1           0       10.346720    2.311255    8.405620
    140          1           0       11.439468    3.537044    7.789440
    141          6           0       12.272891    1.543762    7.804491
    142          1           0       11.940242    0.510820    7.638114
    143          1           0       13.041941    1.756524    7.050435
    144          6           0       12.877394    1.668266    9.195974
    145          1           0       13.227230    2.687948    9.376760
    146          1           0       12.138068    1.428815    9.964675
    147          7           0       14.053276    0.739058    9.383416
    148          1           0       14.470098    0.822369   10.322140
    149          1           0       14.793384    0.938383    8.695312
    150          1           0       13.772243   -0.243423    9.253741
    151          8           0       10.283284    5.225020    5.042371
    152          1           0       10.573004    6.138240    5.215544
 ---------------------------------------------------------------------

 SCF Done:  E(RB3LYP) =  -3473.83452022     A.U. after    3 cycles

 Alpha  occ. eigenvalues --  -19.26457 -19.23357 -19.22468 -19.20626 -19.20222
 Alpha  occ. eigenvalues --  -19.18896 -19.17727 -19.17556 -19.17317 -19.17046
 Alpha  occ. eigenvalues --  -19.14493 -19.13883 -19.02125 -19.02048 -14.64296
 Alpha  occ. eigenvalues --  -14.55632 -14.46322 -14.45498 -14.43951 -14.42372
 Alpha  occ. eigenvalues --  -14.42087 -14.41575 -14.41529 -14.41330 -14.38775
 Alpha  occ. eigenvalues --  -14.37706 -10.41381 -10.40397 -10.39736 -10.38785
 Alpha  occ. eigenvalues --  -10.37227 -10.37127 -10.35746 -10.35386 -10.34463
 Alpha  occ. eigenvalues --  -10.34115 -10.34039 -10.33665 -10.33527 -10.31403
 Alpha  occ. eigenvalues --  -10.31217 -10.31034 -10.30839 -10.30239 -10.29691
 Alpha  occ. eigenvalues --  -10.29626 -10.29618 -10.28632 -10.27082 -10.26956
 Alpha  occ. eigenvalues --  -10.26767 -10.26748 -10.24655 -10.24137 -10.22962
 Alpha  occ. eigenvalues --  -10.22802 -10.21735 -10.21712 -10.21540 -10.21533
 Alpha  occ. eigenvalues --  -10.20695 -10.20532 -10.20512 -10.19791 -10.19519
 Alpha  occ. eigenvalues --  -10.19315 -10.18657 -10.17649 -10.14936 -10.14159
 Alpha  occ. eigenvalues --  -10.13570  -1.18479  -1.17425  -1.15526  -1.14442
 Alpha  occ. eigenvalues --   -1.12219  -1.10730  -1.10609  -1.09658  -1.09311
 Alpha  occ. eigenvalues --   -1.09110  -1.09093  -1.08317  -1.06576  -1.05428
 Alpha  occ. eigenvalues --   -1.03241  -1.00831  -1.00253  -0.99060  -0.98952
 Alpha  occ. eigenvalues --   -0.98084  -0.97222  -0.97112  -0.95565  -0.95539
 Alpha  occ. eigenvalues --   -0.95459  -0.94688  -0.90096  -0.89026  -0.87598
 Alpha  occ. eigenvalues --   -0.86842  -0.86136  -0.85018  -0.84828  -0.83840
 Alpha  occ. eigenvalues --   -0.83057  -0.82170  -0.80953  -0.79484  -0.78653
 Alpha  occ. eigenvalues --   -0.78174  -0.77534  -0.76910  -0.76670  -0.76015
 Alpha  occ. eigenvalues --   -0.75224  -0.75003  -0.73868  -0.72997  -0.72121
 Alpha  occ. eigenvalues --   -0.71994  -0.71906  -0.71703  -0.71277  -0.70602
 Alpha  occ. eigenvalues --   -0.69193  -0.68704  -0.68315  -0.67659  -0.67321
 Alpha  occ. eigenvalues --   -0.66536  -0.66377  -0.66279  -0.65729  -0.65243
 Alpha  occ. eigenvalues --   -0.65189  -0.64567  -0.64101  -0.63594  -0.63177
 Alpha  occ. eigenvalues --   -0.62935  -0.62823  -0.62484  -0.61835  -0.61260
 Alpha  occ. eigenvalues --   -0.61014  -0.60512  -0.59949  -0.59391  -0.59263
 Alpha  occ. eigenvalues --   -0.59067  -0.58987  -0.58674  -0.58012  -0.57698
 Alpha  occ. eigenvalues --   -0.56936  -0.56377  -0.56245  -0.55946  -0.55611
 Alpha  occ. eigenvalues --   -0.55554  -0.55345  -0.55020  -0.54684  -0.53955
 Alpha  occ. eigenvalues --   -0.53655  -0.53443  -0.52883  -0.52599  -0.52556
 Alpha  occ. eigenvalues --   -0.52392  -0.52146  -0.51775  -0.51398  -0.51295
 Alpha  occ. eigenvalues --   -0.50936  -0.50561  -0.50171  -0.50030  -0.49887
 Alpha  occ. eigenvalues --   -0.49511  -0.49349  -0.49248  -0.48920  -0.48663
 Alpha  occ. eigenvalues --   -0.48443  -0.48145  -0.48077  -0.47852  -0.47583
 Alpha  occ. eigenvalues --   -0.47489  -0.47163  -0.46897  -0.46746  -0.46731
 Alpha  occ. eigenvalues --   -0.46405  -0.46312  -0.46162  -0.46041  -0.45523
 Alpha  occ. eigenvalues --   -0.45400  -0.45227  -0.44857  -0.44674  -0.44515
 Alpha  occ. eigenvalues --   -0.44358  -0.44173  -0.43954  -0.43860  -0.43720
 Alpha  occ. eigenvalues --   -0.43524  -0.43345  -0.43012  -0.42653  -0.42484
 Alpha  occ. eigenvalues --   -0.42222  -0.41980  -0.41879  -0.41820  -0.41621
 Alpha  occ. eigenvalues --   -0.41168  -0.41072  -0.40824  -0.40299  -0.39884
 Alpha  occ. eigenvalues --   -0.39424  -0.39298  -0.38795  -0.38502  -0.38348
 Alpha  occ. eigenvalues --   -0.38300  -0.38082  -0.37775  -0.37519  -0.37193
 Alpha  occ. eigenvalues --   -0.36892  -0.36574  -0.36314  -0.35940  -0.35881
 Alpha  occ. eigenvalues --   -0.35748  -0.35622  -0.35517  -0.35434  -0.35122
 Alpha  occ. eigenvalues --   -0.35076  -0.35001  -0.34767  -0.34416  -0.34308
 Alpha  occ. eigenvalues --   -0.33861  -0.33608  -0.33511  -0.33236  -0.32486
 Alpha  occ. eigenvalues --   -0.32324  -0.31994  -0.31732  -0.31419  -0.30818
 Alpha  occ. eigenvalues --   -0.30755  -0.30443  -0.30290  -0.29673  -0.29307
 Alpha  occ. eigenvalues --   -0.28882  -0.28744  -0.28043  -0.27332  -0.26725
 Alpha  occ. eigenvalues --   -0.17689  -0.16644  -0.15688
 Alpha virt. eigenvalues --   -0.15216  -0.10260  -0.09287  -0.08527  -0.08433
 Alpha virt. eigenvalues --   -0.06716  -0.06372  -0.06264  -0.05636  -0.05533
 Alpha virt. eigenvalues --   -0.04591  -0.03763  -0.03347  -0.03071  -0.02339

 Mulliken charges:
               1
     1  N   -0.756081
     2  H    0.467299
     3  H    0.401105
     4  H    0.406895
     5  C   -0.110613
     6  H    0.199898
     7  C    0.624854
     8  C   -0.459882
     9  H    0.211317
    10  H    0.200719
    11  H    0.169768
    12  O   -0.507349
    13  N   -0.598968
    14  H    0.361126
    15  C   -0.055349
    16  H    0.215473
    17  C    0.625485
    18  C   -0.379188
    19  H    0.212958
    20  H    0.192910
    21  O   -0.555664
    22  C    0.614675
    23  N   -0.720695
    24  H    0.359360
    25  H    0.392885
    26  O   -0.596274
    27  N   -0.586050
    28  H    0.350358
    29  C   -0.072115
    30  H    0.194119
    31  C    0.611530
    32  C   -0.299804
    33  H    0.156183
    34  H    0.191187
    35  O   -0.503626
    36  C   -0.321280
    37  H    0.105425
    38  H    0.115227
    39  C    0.554306
    40  O   -0.566840
    41  O   -0.572610
    42  N   -0.650855
    43  H    0.349996
    44  C   -0.073170
    45  H    0.191125
    46  C    0.638597
    47  C   -0.271657
    48  H    0.133883
    49  H    0.113601
    50  O   -0.542032
    51  C   -0.090285
    52  H    0.183076
    53  C   -0.461865
    54  H    0.127414
    55  H    0.171816
    56  H    0.153430
    57  C   -0.449390
    58  H    0.127732
    59  H    0.138720
    60  H    0.147449
    61  N   -0.606448
    62  H    0.369601
    63  C   -0.045970
    64  H    0.169181
    65  C    0.635154
    66  C   -0.294354
    67  H    0.140932
    68  H    0.133290
    69  O   -0.545714
    70  C   -0.077101
    71  H    0.131057
    72  C   -0.457690
    73  H    0.116251
    74  H    0.108327
    75  H    0.227182
    76  C   -0.490983
    77  H    0.110276
    78  H    0.095733
    79  H    0.247706
    80  N   -0.604658
    81  H    0.348017
    82  C   -0.059557
    83  H    0.183143
    84  C    0.628784
    85  C   -0.070949
    86  H    0.140949
    87  O   -0.567257
    88  C   -0.275414
    89  H    0.181769
    90  H    0.125424
    91  C   -0.490723
    92  H    0.159545
    93  H    0.149514
    94  H    0.151067
    95  C   -0.477096
    96  H    0.147749
    97  H    0.185375
    98  H    0.132390
    99  N   -0.607506
   100  H    0.387562
   101  C   -0.076601
   102  H    0.193337
   103  C    0.641375
   104  C   -0.377885
   105  H    0.202692
   106  H    0.146722
   107  O   -0.565106
   108  C    0.646350
   109  N   -0.742616
   110  H    0.332192
   111  H    0.345442
   112  O   -0.524148
   113  N   -0.627981
   114  H    0.385273
   115  C   -0.034064
   116  H    0.160742
   117  C    0.626089
   118  C   -0.107984
   119  H    0.163747
   120  O   -0.518818
   121  C   -0.460895
   122  H    0.137684
   123  H    0.155804
   124  H    0.167274
   125  C   -0.482377
   126  H    0.146337
   127  H    0.156175
   128  H    0.173560
   129  N   -0.633577
   130  H    0.368488
   131  C    0.015984
   132  H    0.181485
   133  C    0.598777
   134  C   -0.321835
   135  H    0.172736
   136  H    0.159354
   137  O   -0.467306
   138  C   -0.279906
   139  H    0.165490
   140  H    0.181860
   141  C   -0.286931
   142  H    0.161711
   143  H    0.168106
   144  C   -0.212908
   145  H    0.230189
   146  H    0.227243
   147  N   -0.690527
   148  H    0.403078
   149  H    0.397453
   150  H    0.395285
   151  O   -0.558984
   152  H    0.417592
 Sum of Mulliken charges =   1.00000

 Dipole moment (field-independent basis, Debye):
    X=             55.5041    Y=              6.3514    Z=              1.9810  Tot=             55.9014
 Quadrupole moment (field-independent basis, Debye-Ang):
   XX=            409.4944   YY=           -431.3793   ZZ=            250.9608
   XY=             -7.8515   XZ=            767.5578   YZ=            -27.3721

 Normal termination of Gaussian 16 at Mon Jul  4 20:52:59 2022.
