 Gaussian 16, Revision C.01,
 Gaussian 16:  ES64L-G16RevC.01  3-Jul-2019

 -------------------------------------------------------------------
 # B3LYP/6-31G* guess=read geom=check nosymm integral(ultrafinegrid)
 -------------------------------------------------------------------

 ------------------------------------------------------
 Candidate Structure: Conf:879 Charge calc in gas phase
 ------------------------------------------------------
 Structure from the checkpoint file:  "conf-879.chk"
 Charge =  1 Multiplicity = 1

                          Input orientation:
 ---------------------------------------------------------------------
 Center     Atomic      Atomic             Coordinates (Angstroms)
 Number     Number       Type             X           Y           Z
 ---------------------------------------------------------------------
      1          7           0       -8.309021   -2.852892   -1.904548
      2          1           0       -8.271757   -1.880524   -1.560809
      3          1           0       -8.938580   -2.858111   -2.730668
      4          1           0       -8.621628   -3.513947   -1.176677
      5          6           0       -6.973772   -3.315097   -2.425506
      6          1           0       -6.201080   -2.947530   -1.744004
      7          6           0       -6.895382   -2.658840   -3.821599
      8          6           0       -7.009287   -4.863793   -2.444677
      9          1           0       -7.697824   -5.175669   -3.239000
     10          8           0       -7.946833   -2.540640   -4.458361
     11          6           0       -5.629728   -5.462817   -2.681921
     12          1           0       -5.235145   -5.166443   -3.658875
     13          1           0       -5.690415   -6.554618   -2.660813
     14          1           0       -4.915883   -5.129089   -1.917680
     15          8           0       -7.613289   -5.298861   -1.222152
     16          1           0       -6.919385   -5.554400   -0.592831
     17          7           0       -5.689066   -2.220775   -4.175987
     18          1           0       -4.869426   -2.407289   -3.595574
     19          6           0       -5.406469   -1.231169   -5.211309
     20          1           0       -5.585860   -1.663067   -6.204261
     21          6           0       -3.876318   -1.005818   -5.074196
     22          6           0       -6.307798    0.040287   -5.069329
     23          1           0       -5.833252    0.867978   -5.610018
     24          1           0       -7.245548   -0.167457   -5.590131
     25          8           0       -3.220078   -1.744361   -4.334738
     26          6           0       -6.615890    0.452902   -3.639688
     27          6           0       -7.928296    0.344563   -3.153710
     28          1           0       -8.717147    0.012479   -3.823820
     29          6           0       -5.618007    0.931768   -2.778226
     30          1           0       -4.599010    1.068541   -3.133815
     31          6           0       -8.234760    0.672872   -1.826987
     32          1           0       -9.266748    0.633593   -1.483107
     33          6           0       -5.922574    1.256336   -1.453755
     34          1           0       -5.136866    1.632300   -0.804566
     35          6           0       -7.224606    1.119650   -0.968011
     36          1           0       -7.458246    1.389678    0.058160
     37          7           0       -3.302096   -0.027415   -5.798134
     38          1           0       -3.876768    0.625857   -6.312231
     39          6           0       -1.891815    0.318564   -5.586932
     40          1           0       -1.283818   -0.539551   -5.893337
     41          6           0       -1.662080    0.605042   -4.082471
     42          6           0       -1.536008    1.548613   -6.425716
     43          1           0       -0.474753    1.786721   -6.312668
     44          1           0       -2.115417    2.416596   -6.093160
     45          1           0       -1.730372    1.367455   -7.488266
     46          8           0       -2.474229    1.269532   -3.437396
     47          7           0       -0.528664    0.094343   -3.565109
     48          1           0        0.171523   -0.362425   -4.143451
     49          6           0       -0.106115    0.303836   -2.188186
     50          1           0       -0.544875    1.244286   -1.839728
     51          6           0        1.434624    0.387685   -2.222877
     52          6           0       -0.532491   -0.855435   -1.253704
     53          1           0       -0.196938   -0.630692   -0.235583
     54          1           0       -0.000943   -1.763973   -1.560851
     55          8           0        2.059865   -0.129984   -3.150960
     56          6           0       -2.040923   -1.126419   -1.255207
     57          1           0       -2.607868   -0.226358   -0.982432
     58          1           0       -2.392117   -1.406174   -2.252369
     59          6           0       -2.419186   -2.219442   -0.288056
     60          8           0       -1.719481   -2.709106    0.565487
     61          8           0       -3.722999   -2.641622   -0.449754
     62          7           0        2.006583    1.009974   -1.176929
     63          1           0        1.463896    1.392837   -0.406108
     64          6           0        3.444893    1.062025   -0.957122
     65          1           0        3.868057    0.074880   -1.176785
     66          6           0        3.626552    1.387397    0.539744
     67          6           0        4.131311    2.111622   -1.850344
     68          1           0        5.211733    2.133329   -1.673132
     69          1           0        3.726947    3.108785   -1.647411
     70          1           0        3.956665    1.862362   -2.900067
     71          8           0        2.678974    1.809844    1.207473
     72          7           0        4.868225    1.178994    1.022494
     73          1           0        5.637141    0.988519    0.383481
     74          6           0        5.329195    1.646747    2.324320
     75          1           0        4.643012    2.426345    2.668454
     76          6           0        6.734209    2.239855    2.082213
     77          6           0        5.414051    0.508109    3.369138
     78          1           0        6.100926   -0.251480    2.972000
     79          1           0        5.886375    0.907710    4.277598
     80          8           0        7.374211    1.942768    1.070242
     81          6           0        4.077802   -0.156815    3.752946
     82          1           0        3.587689   -0.490387    2.827861
     83          6           0        4.351273   -1.398149    4.616663
     84          1           0        4.846800   -1.123086    5.556766
     85          1           0        4.996877   -2.116602    4.097495
     86          1           0        3.416786   -1.910361    4.873202
     87          6           0        3.126503    0.811609    4.471515
     88          1           0        3.593284    1.223183    5.376522
     89          1           0        2.212284    0.291531    4.781140
     90          1           0        2.826173    1.639031    3.822067
     91          7           0        7.199217    3.056270    3.049070
     92          1           0        6.672848    3.217650    3.902592
     93          6           0        8.565328    3.558268    3.082121
     94          1           0        9.253951    2.748694    2.815077
     95          6           0        8.833629    4.044508    4.507145
     96          6           0        8.826199    4.755916    2.128812
     97          1           0        8.506814    4.465099    1.123118
     98          1           0        9.910913    4.895883    2.105099
     99          8           0       10.068644    4.525259    4.631641
    100          6           0        8.151775    6.067759    2.582710
    101          1           0        7.962432    6.061986    3.659344
    102          1           0        7.168343    6.178542    2.107885
    103          6           0        8.949429    7.344496    2.270200
    104          1           0        8.404506    8.201578    2.686391
    105          1           0        9.005138    7.493224    1.185968
    106          7           0       10.338764    7.387346    2.739407
    107          1           0       11.052274    7.492879    2.033839
    108          7           0       10.075096    7.171823    5.050485
    109          1           0       10.433299    7.570984    5.917999
    110          1           0       10.034271    5.428084    5.090481
    111          7           0       11.979480    8.255668    4.099908
    112          1           0       12.131001    9.034984    3.471409
    113          1           0       12.351648    8.404317    5.028332
    114          6           0       10.752709    7.606923    4.028327
    115          8           0        7.965829    4.087899    5.359736
    116          1           0       -3.839713   -3.295883    0.265875
 ---------------------------------------------------------------------

 SCF Done:  E(RB3LYP) =  -2782.28706227     A.U. after    1 cycles

 Alpha  occ. eigenvalues --  -19.29467 -19.28237 -19.25212 -19.23115 -19.22109
 Alpha  occ. eigenvalues --  -19.19721 -19.19378 -19.18178 -19.17578 -19.17213
 Alpha  occ. eigenvalues --  -19.16474 -14.58554 -14.48440 -14.46986 -14.43558
 Alpha  occ. eigenvalues --  -14.42096 -14.41090 -14.40765 -14.40445 -14.40308
 Alpha  occ. eigenvalues --  -14.34678 -10.42417 -10.40098 -10.40081 -10.39016
 Alpha  occ. eigenvalues --  -10.38724 -10.36758 -10.35572 -10.35363 -10.34894
 Alpha  occ. eigenvalues --  -10.34589 -10.34529 -10.33443 -10.32870 -10.30783
 Alpha  occ. eigenvalues --  -10.30687 -10.30219 -10.29519 -10.29385 -10.29014
 Alpha  occ. eigenvalues --  -10.28839 -10.28648 -10.28140 -10.28119 -10.27608
 Alpha  occ. eigenvalues --  -10.27402 -10.27379 -10.27227 -10.27149 -10.26605
 Alpha  occ. eigenvalues --  -10.23670 -10.23106 -10.22778 -10.22485 -10.22325
 Alpha  occ. eigenvalues --  -10.20967 -10.20491  -1.18504  -1.18127  -1.16613
 Alpha  occ. eigenvalues --   -1.15283  -1.12365  -1.12140  -1.11366  -1.10144
 Alpha  occ. eigenvalues --   -1.09518  -1.09250  -1.08124  -1.05407  -1.04033
 Alpha  occ. eigenvalues --   -1.03309  -1.03106  -1.00069  -0.98694  -0.97807
 Alpha  occ. eigenvalues --   -0.96874  -0.95176  -0.94194  -0.92442  -0.89901
 Alpha  occ. eigenvalues --   -0.89585  -0.87920  -0.86212  -0.85542  -0.85038
 Alpha  occ. eigenvalues --   -0.83823  -0.83528  -0.83371  -0.82798  -0.80594
 Alpha  occ. eigenvalues --   -0.79461  -0.77852  -0.77417  -0.76424  -0.74504
 Alpha  occ. eigenvalues --   -0.73056  -0.72756  -0.71893  -0.71763  -0.71619
 Alpha  occ. eigenvalues --   -0.71023  -0.70773  -0.69941  -0.69559  -0.68993
 Alpha  occ. eigenvalues --   -0.67369  -0.66982  -0.66543  -0.65783  -0.65509
 Alpha  occ. eigenvalues --   -0.65340  -0.64005  -0.63974  -0.62983  -0.62845
 Alpha  occ. eigenvalues --   -0.62342  -0.61691  -0.60905  -0.60669  -0.60321
 Alpha  occ. eigenvalues --   -0.60173  -0.59444  -0.58966  -0.58553  -0.57950
 Alpha  occ. eigenvalues --   -0.57908  -0.57614  -0.57289  -0.56957  -0.56442
 Alpha  occ. eigenvalues --   -0.56337  -0.55644  -0.55394  -0.54965  -0.54259
 Alpha  occ. eigenvalues --   -0.54017  -0.53364  -0.53218  -0.52956  -0.52872
 Alpha  occ. eigenvalues --   -0.52410  -0.52265  -0.51975  -0.51446  -0.51245
 Alpha  occ. eigenvalues --   -0.50992  -0.50844  -0.50594  -0.50469  -0.50352
 Alpha  occ. eigenvalues --   -0.50225  -0.50038  -0.49838  -0.49637  -0.49569
 Alpha  occ. eigenvalues --   -0.48863  -0.48814  -0.48359  -0.48173  -0.47989
 Alpha  occ. eigenvalues --   -0.47690  -0.47610  -0.47515  -0.47296  -0.46965
 Alpha  occ. eigenvalues --   -0.46809  -0.46474  -0.45664  -0.45597  -0.45478
 Alpha  occ. eigenvalues --   -0.45382  -0.45127  -0.44140  -0.43850  -0.43818
 Alpha  occ. eigenvalues --   -0.43670  -0.43253  -0.43062  -0.42976  -0.42838
 Alpha  occ. eigenvalues --   -0.42560  -0.42315  -0.42218  -0.42000  -0.41755
 Alpha  occ. eigenvalues --   -0.41636  -0.40838  -0.40343  -0.40198  -0.39596
 Alpha  occ. eigenvalues --   -0.39403  -0.38757  -0.38562  -0.38394  -0.37302
 Alpha  occ. eigenvalues --   -0.37262  -0.36698  -0.36614  -0.36278  -0.36162
 Alpha  occ. eigenvalues --   -0.35646  -0.34701  -0.34212  -0.33873  -0.33735
 Alpha  occ. eigenvalues --   -0.33188  -0.32854  -0.32411  -0.31829  -0.31603
 Alpha  occ. eigenvalues --   -0.31307  -0.30895  -0.30597  -0.29884  -0.29588
 Alpha  occ. eigenvalues --   -0.28352
 Alpha virt. eigenvalues --   -0.12419  -0.11066  -0.09855  -0.08788  -0.07652
 Alpha virt. eigenvalues --   -0.06944  -0.05710  -0.05305  -0.04209  -0.03589
 Alpha virt. eigenvalues --   -0.03067  -0.02945  -0.02214  -0.02150  -0.01902

 Mulliken charges:
               1
     1  N   -0.743840
     2  H    0.412014
     3  H    0.416675
     4  H    0.418542
     5  C   -0.147864
     6  H    0.216071
     7  C    0.658841
     8  C    0.133004
     9  H    0.189412
    10  O   -0.540818
    11  C   -0.504074
    12  H    0.194112
    13  H    0.203232
    14  H    0.165098
    15  O   -0.633486
    16  H    0.420172
    17  N   -0.621786
    18  H    0.381036
    19  C   -0.028771
    20  H    0.206965
    21  C    0.639401
    22  C   -0.390695
    23  H    0.167493
    24  H    0.191592
    25  O   -0.536945
    26  C    0.152581
    27  C   -0.209950
    28  H    0.154120
    29  C   -0.205825
    30  H    0.215868
    31  C   -0.191345
    32  H    0.148217
    33  C   -0.144693
    34  H    0.157660
    35  C   -0.131672
    36  H    0.154059
    37  N   -0.608904
    38  H    0.347284
    39  C   -0.025935
    40  H    0.176019
    41  C    0.646670
    42  C   -0.493601
    43  H    0.189045
    44  H    0.179906
    45  H    0.172741
    46  O   -0.547806
    47  N   -0.600554
    48  H    0.356717
    49  C   -0.070302
    50  H    0.178878
    51  C    0.626206
    52  C   -0.256643
    53  H    0.174814
    54  H    0.168223
    55  O   -0.545236
    56  C   -0.393046
    57  H    0.189341
    58  H    0.223482
    59  C    0.588137
    60  O   -0.441245
    61  O   -0.607128
    62  N   -0.618318
    63  H    0.357672
    64  C   -0.040093
    65  H    0.182083
    66  C    0.614376
    67  C   -0.454611
    68  H    0.166715
    69  H    0.159735
    70  H    0.184945
    71  O   -0.543579
    72  N   -0.602492
    73  H    0.356958
    74  C   -0.078167
    75  H    0.180183
    76  C    0.622532
    77  C   -0.253883
    78  H    0.144204
    79  H    0.143417
    80  O   -0.548379
    81  C   -0.065452
    82  H    0.132459
    83  C   -0.445018
    84  H    0.144984
    85  H    0.141565
    86  H    0.143135
    87  C   -0.462021
    88  H    0.136428
    89  H    0.140065
    90  H    0.171326
    91  N   -0.616626
    92  H    0.355786
    93  C   -0.031676
    94  H    0.184948
    95  C    0.582317
    96  C   -0.272389
    97  H    0.164345
    98  H    0.165558
    99  O   -0.605736
   100  C   -0.286232
   101  H    0.188560
   102  H    0.138913
   103  C   -0.129123
   104  H    0.159793
   105  H    0.143637
   106  N   -0.588843
   107  H    0.332568
   108  N   -0.715368
   109  H    0.286998
   110  H    0.451007
   111  N   -0.752767
   112  H    0.333302
   113  H    0.336349
   114  C    0.650835
   115  O   -0.479216
   116  H    0.400827
 Sum of Mulliken charges =   1.00000

 Dipole moment (field-independent basis, Debye):
    X=            -17.8850    Y=             -0.4403    Z=            -10.7988  Tot=             20.8969
 Quadrupole moment (field-independent basis, Debye-Ang):
   XX=            -14.0726   YY=           -198.8180   ZZ=           -274.4051
   XY=            187.2465   XZ=             81.0281   YZ=             31.2618

 Normal termination of Gaussian 16 at Thu Jun 30 14:51:02 2022.
