 Gaussian 16, Revision C.01,
 Gaussian 16:  ES64L-G16RevC.01  3-Jul-2019

 -------------------------------------------------------------------
 # B3LYP/6-31G* guess=read geom=check nosymm integral(ultrafinegrid)
 -------------------------------------------------------------------

 -----------------------------------------------------
 Candidate Structure: Conf:95 Charge calc in gas phase
 -----------------------------------------------------
 Structure from the checkpoint file:  "conf-95.chk"
 Charge =  1 Multiplicity = 1

                          Input orientation:
 ---------------------------------------------------------------------
 Center     Atomic      Atomic             Coordinates (Angstroms)
 Number     Number       Type             X           Y           Z
 ---------------------------------------------------------------------
      1          7           0       -7.622421   -4.089281   -3.155809
      2          1           0       -8.041339   -3.380455   -2.533784
      3          1           0       -8.125526   -4.032978   -4.064650
      4          1           0       -7.657592   -5.035672   -2.748218
      5          6           0       -6.190962   -3.763588   -3.492391
      6          1           0       -5.701471   -3.385887   -2.591745
      7          6           0       -6.326124   -2.695279   -4.592562
      8          6           0       -5.533281   -5.076891   -3.979987
      9          1           0       -5.989873   -5.342998   -4.940436
     10          8           0       -7.269751   -2.816521   -5.382405
     11          6           0       -4.025904   -4.935933   -4.140346
     12          1           0       -3.779303   -4.159426   -4.871684
     13          1           0       -3.600883   -5.882398   -4.485993
     14          1           0       -3.555256   -4.658426   -3.188504
     15          8           0       -5.916331   -6.120820   -3.078278
     16          1           0       -5.228712   -6.220144   -2.399246
     17          7           0       -5.429123   -1.711877   -4.557958
     18          1           0       -4.709219   -1.719120   -3.829758
     19          6           0       -5.589809   -0.480939   -5.317437
     20          1           0       -6.186516   -0.720694   -6.202811
     21          6           0       -4.166555   -0.052435   -5.742658
     22          6           0       -6.331145    0.590496   -4.447332
     23          1           0       -5.598089    1.030089   -3.762367
     24          1           0       -6.689433    1.386402   -5.112385
     25          8           0       -3.266030   -0.882055   -5.804110
     26          6           0       -7.497310    0.028351   -3.658902
     27          6           0       -8.778880   -0.071733   -4.218007
     28          1           0       -8.954336    0.297936   -5.225236
     29          6           0       -7.298739   -0.452383   -2.355641
     30          1           0       -6.312915   -0.375325   -1.903177
     31          6           0       -9.832052   -0.646456   -3.505621
     32          1           0      -10.818443   -0.706347   -3.956490
     33          6           0       -8.350579   -1.031346   -1.634870
     34          1           0       -8.188100   -1.356640   -0.609329
     35          6           0       -9.622851   -1.132924   -2.211476
     36          1           0      -10.449702   -1.554007   -1.645423
     37          7           0       -3.955121    1.272797   -5.995175
     38          1           0       -4.687246    1.911078   -5.711979
     39          6           0       -2.598191    1.779843   -5.784602
     40          1           0       -1.935515    1.281907   -6.497658
     41          6           0       -2.169175    1.394423   -4.344289
     42          6           0       -2.559237    3.296010   -5.996435
     43          1           0       -1.541049    3.674646   -5.868599
     44          1           0       -3.200692    3.808353   -5.269655
     45          1           0       -2.895521    3.550041   -7.006308
     46          8           0       -3.008892    1.242973   -3.450574
     47          7           0       -0.849507    1.215667   -4.149464
     48          1           0       -0.156435    1.425989   -4.863378
     49          6           0       -0.286660    0.873391   -2.853409
     50          1           0       -0.929706    1.296008   -2.076941
     51          6           0        1.120098    1.504229   -2.810795
     52          6           0       -0.163876   -0.659947   -2.652995
     53          1           0        0.209351   -0.849431   -1.641087
     54          1           0        0.598074   -1.031694   -3.348607
     55          8           0        1.700852    1.792501   -3.859429
     56          6           0       -1.443653   -1.470902   -2.905733
     57          1           0       -1.823313   -1.319993   -3.920822
     58          1           0       -1.197758   -2.540703   -2.836170
     59          6           0       -2.605692   -1.261353   -1.964470
     60          8           0       -3.744411   -1.674349   -2.164968
     61          8           0       -2.278197   -0.645761   -0.822377
     62          7           0        1.644506    1.661761   -1.582805
     63          1           0        1.153150    1.375494   -0.738654
     64          6           0        3.011113    2.099266   -1.335698
     65          1           0        3.673211    1.597348   -2.050729
     66          6           0        3.342649    1.636242    0.098914
     67          6           0        3.170376    3.622655   -1.489719
     68          1           0        4.204283    3.930465   -1.301652
     69          1           0        2.518971    4.148003   -0.783462
     70          1           0        2.900799    3.913882   -2.508215
     71          8           0        2.440466    1.278260    0.862349
     72          7           0        4.650340    1.665240    0.417769
     73          1           0        5.316343    2.127288   -0.199604
     74          6           0        5.174345    1.521622    1.771553
     75          1           0        4.365300    1.730920    2.477800
     76          6           0        6.285953    2.589569    1.899217
     77          6           0        5.766648    0.117052    2.035002
     78          1           0        6.564888   -0.045627    1.298115
     79          1           0        6.252948    0.129516    3.020122
     80          8           0        6.774642    3.102086    0.884584
     81          6           0        4.772812   -1.059423    1.982763
     82          1           0        4.246636   -1.016854    1.018881
     83          6           0        5.544845   -2.387014    2.041716
     84          1           0        6.096919   -2.480039    2.985841
     85          1           0        6.269961   -2.468503    1.223095
     86          1           0        4.862078   -3.242116    1.972738
     87          6           0        3.721391   -0.987825    3.100206
     88          1           0        4.198989   -0.964307    4.088796
     89          1           0        3.069240   -1.869178    3.071109
     90          1           0        3.083019   -0.105704    2.996214
     91          7           0        6.678927    2.871334    3.150731
     92          1           0        6.292959    2.403691    3.970758
     93          6           0        7.836140    3.693117    3.489677
     94          1           0        8.655017    3.456100    2.801919
     95          6           0        8.233979    3.275176    4.939334
     96          6           0        7.474423    5.203045    3.332396
     97          1           0        6.834449    5.505827    4.172600
     98          1           0        6.851536    5.252637    2.435093
     99          8           0        9.422724    3.594240    5.303152
    100          6           0        8.636633    6.211462    3.136986
    101          1           0        8.353764    6.928447    2.357378
    102          1           0        9.527586    5.695771    2.755812
    103          6           0        9.036138    7.049069    4.362639
    104          1           0        8.159421    7.576223    4.762086
    105          1           0        9.771900    7.806445    4.059463
    106          7           0        9.602274    6.179403    5.393730
    107          1           0        9.731787    5.173980    5.115660
    108          7           0        9.111530    7.503379    7.256874
    109          1           0        9.052948    7.589671    8.260965
    110          1           0        9.363720    8.343711    6.757372
    111          7           0        9.542661    5.206161    7.463172
    112          1           0        9.506356    4.298000    6.952390
    113          1           0        9.476628    5.246311    8.468545
    114          6           0        9.424236    6.301440    6.706432
    115          8           0        7.378986    2.697300    5.624860
    116          1           0       -3.092099   -0.555098   -0.291270
 ---------------------------------------------------------------------

 SCF Done:  E(RB3LYP) =  -2782.31625617     A.U. after    1 cycles

 Alpha  occ. eigenvalues --  -19.29271 -19.28219 -19.23941 -19.23494 -19.20703
 Alpha  occ. eigenvalues --  -19.19422 -19.18115 -19.17239 -19.15410 -19.12993
 Alpha  occ. eigenvalues --  -19.12125 -14.57257 -14.46657 -14.45393 -14.44364
 Alpha  occ. eigenvalues --  -14.43479 -14.42574 -14.41978 -14.41773 -14.40589
 Alpha  occ. eigenvalues --  -14.38682 -10.42123 -10.40627 -10.39900 -10.37799
 Alpha  occ. eigenvalues --  -10.37546 -10.37346 -10.36430 -10.35300 -10.34172
 Alpha  occ. eigenvalues --  -10.33432 -10.32342 -10.31613 -10.30588 -10.30374
 Alpha  occ. eigenvalues --  -10.29394 -10.29303 -10.29161 -10.29072 -10.29009
 Alpha  occ. eigenvalues --  -10.28996 -10.28863 -10.28645 -10.28442 -10.28356
 Alpha  occ. eigenvalues --  -10.28241 -10.27427 -10.27318 -10.26600 -10.25475
 Alpha  occ. eigenvalues --  -10.24343 -10.23465 -10.22980 -10.22504 -10.22475
 Alpha  occ. eigenvalues --  -10.20776 -10.20278  -1.20325  -1.16668  -1.15150
 Alpha  occ. eigenvalues --   -1.13006  -1.11139  -1.10965  -1.10862  -1.09992
 Alpha  occ. eigenvalues --   -1.08862  -1.08683  -1.07107  -1.05715  -1.03793
 Alpha  occ. eigenvalues --   -1.01031  -0.99938  -0.98578  -0.98459  -0.97314
 Alpha  occ. eigenvalues --   -0.96989  -0.96547  -0.95166  -0.95084  -0.91114
 Alpha  occ. eigenvalues --   -0.88675  -0.88163  -0.85457  -0.85108  -0.84117
 Alpha  occ. eigenvalues --   -0.83975  -0.83909  -0.83182  -0.81683  -0.80458
 Alpha  occ. eigenvalues --   -0.79311  -0.77123  -0.76493  -0.74928  -0.74071
 Alpha  occ. eigenvalues --   -0.72553  -0.72223  -0.71735  -0.71438  -0.71101
 Alpha  occ. eigenvalues --   -0.70409  -0.70291  -0.69682  -0.69562  -0.69022
 Alpha  occ. eigenvalues --   -0.68614  -0.67873  -0.67047  -0.66143  -0.65854
 Alpha  occ. eigenvalues --   -0.64922  -0.64190  -0.63975  -0.62930  -0.62684
 Alpha  occ. eigenvalues --   -0.62352  -0.61818  -0.61041  -0.60793  -0.60298
 Alpha  occ. eigenvalues --   -0.60093  -0.58930  -0.58449  -0.57979  -0.57502
 Alpha  occ. eigenvalues --   -0.57370  -0.57250  -0.57076  -0.56676  -0.56373
 Alpha  occ. eigenvalues --   -0.55974  -0.55738  -0.55117  -0.54932  -0.54442
 Alpha  occ. eigenvalues --   -0.53992  -0.53806  -0.53511  -0.52774  -0.52583
 Alpha  occ. eigenvalues --   -0.52287  -0.52145  -0.51714  -0.51368  -0.51181
 Alpha  occ. eigenvalues --   -0.51072  -0.50721  -0.50200  -0.50117  -0.49578
 Alpha  occ. eigenvalues --   -0.49551  -0.49364  -0.49118  -0.48941  -0.48757
 Alpha  occ. eigenvalues --   -0.48600  -0.48501  -0.48174  -0.47895  -0.47816
 Alpha  occ. eigenvalues --   -0.47423  -0.46975  -0.46748  -0.46609  -0.46491
 Alpha  occ. eigenvalues --   -0.46038  -0.45623  -0.45550  -0.45276  -0.44964
 Alpha  occ. eigenvalues --   -0.44821  -0.44773  -0.44565  -0.44327  -0.43742
 Alpha  occ. eigenvalues --   -0.43670  -0.43457  -0.43243  -0.43138  -0.42972
 Alpha  occ. eigenvalues --   -0.42392  -0.42230  -0.41989  -0.41576  -0.41427
 Alpha  occ. eigenvalues --   -0.41355  -0.41067  -0.40575  -0.40425  -0.39836
 Alpha  occ. eigenvalues --   -0.39047  -0.38773  -0.38014  -0.37689  -0.37490
 Alpha  occ. eigenvalues --   -0.36796  -0.36345  -0.35962  -0.35913  -0.35833
 Alpha  occ. eigenvalues --   -0.35472  -0.34727  -0.34454  -0.33723  -0.33598
 Alpha  occ. eigenvalues --   -0.33024  -0.32376  -0.32261  -0.31712  -0.31189
 Alpha  occ. eigenvalues --   -0.30519  -0.29484  -0.29278  -0.28097  -0.27146
 Alpha  occ. eigenvalues --   -0.26344
 Alpha virt. eigenvalues --   -0.10766  -0.10295  -0.09939  -0.08787  -0.07511
 Alpha virt. eigenvalues --   -0.06350  -0.05072  -0.04574  -0.04100  -0.03288
 Alpha virt. eigenvalues --   -0.02674  -0.02153  -0.01547  -0.01229  -0.01187

 Mulliken charges:
               1
     1  N   -0.746333
     2  H    0.408404
     3  H    0.417939
     4  H    0.414243
     5  C   -0.146763
     6  H    0.212382
     7  C    0.650100
     8  C    0.128693
     9  H    0.187818
    10  O   -0.546812
    11  C   -0.502335
    12  H    0.206829
    13  H    0.196147
    14  H    0.159717
    15  O   -0.632245
    16  H    0.416938
    17  N   -0.609111
    18  H    0.409177
    19  C   -0.063418
    20  H    0.213892
    21  C    0.628598
    22  C   -0.409040
    23  H    0.202852
    24  H    0.162732
    25  O   -0.518784
    26  C    0.164056
    27  C   -0.153142
    28  H    0.149516
    29  C   -0.193439
    30  H    0.153836
    31  C   -0.130073
    32  H    0.158870
    33  C   -0.193728
    34  H    0.148346
    35  C   -0.154816
    36  H    0.154151
    37  N   -0.586532
    38  H    0.341169
    39  C   -0.054923
    40  H    0.187924
    41  C    0.634271
    42  C   -0.478996
    43  H    0.181411
    44  H    0.165210
    45  H    0.181470
    46  O   -0.565532
    47  N   -0.604693
    48  H    0.358720
    49  C   -0.060565
    50  H    0.187899
    51  C    0.621255
    52  C   -0.264666
    53  H    0.171697
    54  H    0.166271
    55  O   -0.543905
    56  C   -0.402161
    57  H    0.232950
    58  H    0.182046
    59  C    0.646154
    60  O   -0.533283
    61  O   -0.539453
    62  N   -0.618517
    63  H    0.358188
    64  C   -0.041342
    65  H    0.181292
    66  C    0.613416
    67  C   -0.454150
    68  H    0.168359
    69  H    0.158700
    70  H    0.183807
    71  O   -0.548127
    72  N   -0.602741
    73  H    0.357423
    74  C   -0.075414
    75  H    0.177532
    76  C    0.622207
    77  C   -0.254258
    78  H    0.142344
    79  H    0.150545
    80  O   -0.562838
    81  C   -0.064342
    82  H    0.127511
    83  C   -0.444436
    84  H    0.146837
    85  H    0.141216
    86  H    0.137582
    87  C   -0.460411
    88  H    0.139102
    89  H    0.133297
    90  H    0.170718
    91  N   -0.616490
    92  H    0.356547
    93  C   -0.040144
    94  H    0.166227
    95  C    0.590535
    96  C   -0.274208
    97  H    0.139151
    98  H    0.174115
    99  O   -0.643817
   100  C   -0.303964
   101  H    0.156722
   102  H    0.169629
   103  C   -0.145246
   104  H    0.158694
   105  H    0.158728
   106  N   -0.611107
   107  H    0.411802
   108  N   -0.754579
   109  H    0.358823
   110  H    0.367402
   111  N   -0.774094
   112  H    0.419695
   113  H    0.345682
   114  C    0.766291
   115  O   -0.547666
   116  H    0.418836
 Sum of Mulliken charges =   1.00000

 Dipole moment (field-independent basis, Debye):
    X=            -15.5080    Y=              2.2689    Z=             -2.9378  Tot=             15.9460
 Quadrupole moment (field-independent basis, Debye-Ang):
   XX=            -70.3881   YY=           -158.7582   ZZ=           -215.7835
   XY=            183.4200   XZ=            156.2170   YZ=            107.0339

 Normal termination of Gaussian 16 at Thu Jun 30 14:49:10 2022.
