 Gaussian 16, Revision C.01,
 Gaussian 16:  ES64L-G16RevC.01  3-Jul-2019

 -------------------------------------------------------------------
 # B3LYP/6-31G* guess=read geom=check nosymm integral(ultrafinegrid)
 -------------------------------------------------------------------

 ------------------------------------------------------
 Candidate Structure: Conf:112 Charge calc in gas phase
 ------------------------------------------------------
 Structure from the checkpoint file:  "conf-112.chk"
 Charge =  1 Multiplicity = 1

                          Input orientation:
 ---------------------------------------------------------------------
 Center     Atomic      Atomic             Coordinates (Angstroms)
 Number     Number       Type             X           Y           Z
 ---------------------------------------------------------------------
      1          7           0       -7.460490   -3.197438   -9.190025
      2          1           0       -8.014119   -4.016212   -8.924689
      3          1           0       -7.884193   -2.348360   -8.737209
      4          1           0       -7.399979   -3.129551  -10.221215
      5          6           0       -6.057264   -3.221086   -8.648013
      6          1           0       -5.762004   -4.259801   -8.479065
      7          6           0       -6.149897   -2.389833   -7.343593
      8          6           0       -5.144630   -2.545864   -9.724062
      9          1           0       -5.310653   -1.463990   -9.665146
     10          8           0       -7.120220   -1.627849   -7.229246
     11          6           0       -3.667558   -2.863282   -9.532815
     12          1           0       -3.295649   -2.521127   -8.562376
     13          1           0       -3.085191   -2.359826  -10.309757
     14          1           0       -3.484754   -3.943634   -9.604598
     15          8           0       -5.628492   -2.926689  -11.014677
     16          1           0       -5.105364   -3.673563  -11.350770
     17          7           0       -5.153333   -2.536844   -6.480797
     18          1           0       -4.347468   -3.141461   -6.661184
     19          6           0       -4.944519   -1.728415   -5.278833
     20          1           0       -5.300598   -0.712293   -5.471872
     21          6           0       -3.407278   -1.746548   -5.095709
     22          6           0       -5.721251   -2.327975   -4.071645
     23          1           0       -6.765126   -2.423180   -4.394613
     24          1           0       -5.342677   -3.340508   -3.890481
     25          8           0       -2.743019   -2.619089   -5.677031
     26          6           0       -5.640405   -1.500175   -2.806375
     27          6           0       -4.908064   -1.950552   -1.700237
     28          1           0       -4.401851   -2.912463   -1.748705
     29          6           0       -6.297299   -0.263319   -2.722463
     30          1           0       -6.890266    0.092373   -3.563537
     31          6           0       -4.826178   -1.182427   -0.537758
     32          1           0       -4.254534   -1.530686    0.316682
     33          6           0       -6.211596    0.509532   -1.563678
     34          1           0       -6.725299    1.465632   -1.514651
     35          6           0       -5.473368    0.052272   -0.470471
     36          1           0       -5.395946    0.646772    0.434437
     37          7           0       -2.889323   -0.801408   -4.307978
     38          1           0       -3.473792   -0.125261   -3.817435
     39          6           0       -1.477639   -0.740375   -3.935516
     40          1           0       -1.136062   -1.754235   -3.699076
     41          6           0       -1.432104    0.152472   -2.679739
     42          6           0       -0.605260   -0.159866   -5.061431
     43          1           0        0.445789   -0.132769   -4.756366
     44          1           0       -0.923775    0.859305   -5.302412
     45          1           0       -0.691000   -0.785374   -5.953841
     46          8           0       -2.324823    0.977457   -2.474568
     47          7           0       -0.368082   -0.022705   -1.875713
     48          1           0        0.342133   -0.729992   -2.047710
     49          6           0       -0.165797    0.728117   -0.643892
     50          1           0       -0.337781    1.792002   -0.846287
     51          6           0        1.303511    0.477917   -0.251767
     52          6           0       -1.154772    0.248404    0.449746
     53          1           0       -0.887240   -0.773905    0.742526
     54          1           0       -2.143036    0.202872   -0.013198
     55          8           0        1.898705   -0.516968   -0.671543
     56          6           0       -1.243407    1.148673    1.685575
     57          1           0       -0.320995    1.178805    2.274110
     58          1           0       -1.443645    2.190285    1.392809
     59          6           0       -2.377761    0.733599    2.600865
     60          8           0       -3.289901   -0.014994    2.314414
     61          8           0       -2.276797    1.321663    3.813326
     62          7           0        1.852018    1.388183    0.577081
     63          1           0        1.295723    2.137495    0.980455
     64          6           0        3.119505    1.182881    1.264785
     65          1           0        3.275198    0.104221    1.373188
     66          6           0        2.948880    1.830898    2.655659
     67          6           0        4.304524    1.786615    0.491264
     68          1           0        5.247918    1.623400    1.023100
     69          1           0        4.166463    2.864403    0.355546
     70          1           0        4.375131    1.313368   -0.492134
     71          8           0        2.007131    2.601623    2.871288
     72          7           0        3.875054    1.488548    3.570038
     73          1           0        4.715707    0.985856    3.291881
     74          6           0        4.013602    2.123990    4.875504
     75          1           0        3.510752    3.094854    4.836220
     76          6           0        5.532761    2.310038    5.087388
     77          6           0        3.427210    1.261540    6.019304
     78          1           0        3.980870    0.312890    6.031238
     79          1           0        3.649839    1.761101    6.972369
     80          8           0        6.337609    1.639457    4.432415
     81          6           0        1.915655    0.970211    5.942072
     82          1           0        1.706364    0.539798    4.952789
     83          6           0        1.538731   -0.079639    6.999301
     84          1           0        1.738868    0.292205    8.012546
     85          1           0        2.107206   -1.008054    6.867225
     86          1           0        0.472234   -0.327218    6.943090
     87          6           0        1.058753    2.235052    6.098460
     88          1           0        1.233635    2.710217    7.073125
     89          1           0       -0.006843    1.984919    6.034688
     90          1           0        1.264889    2.962779    5.308649
     91          7           0        5.885654    3.195474    6.035743
     92          1           0        5.198118    3.746392    6.540998
     93          6           0        7.256576    3.415745    6.487044
     94          1           0        7.782030    2.458610    6.508138
     95          6           0        7.214400    4.003654    7.913674
     96          6           0        7.995001    4.386241    5.519586
     97          1           0        7.303894    5.207451    5.282663
     98          1           0        8.152416    3.845070    4.581371
     99          8           0        8.147902    3.735794    8.683430
    100          6           0        9.339040    4.953437    6.042565
    101          1           0       10.097087    4.899979    5.251370
    102          1           0        9.699184    4.349270    6.881611
    103          6           0        9.272536    6.432332    6.472420
    104          1           0        8.959951    7.055050    5.626606
    105          1           0       10.268956    6.785508    6.756015
    106          7           0        8.328754    6.703692    7.566977
    107          1           0        7.376583    6.362107    7.403103
    108          7           0        9.837568    7.082296    9.328593
    109          1           0       10.117225    6.784446   10.251639
    110          1           0       10.587329    7.237679    8.672830
    111          7           0        7.613571    6.503814    9.737495
    112          1           0        6.892143    5.828660    9.373136
    113          1           0        7.832866    6.467612   10.723464
    114          6           0        8.611931    6.726504    8.878332
    115          8           0        6.251836    4.837910    8.118152
    116          1           0       -3.050540    1.026781    4.330329
 ---------------------------------------------------------------------

 SCF Done:  E(RB3LYP) =  -2782.30263515     A.U. after    3 cycles

 Alpha  occ. eigenvalues --  -19.30426 -19.25969 -19.24765 -19.21133 -19.19408
 Alpha  occ. eigenvalues --  -19.18402 -19.17595 -19.16969 -19.15184 -19.12701
 Alpha  occ. eigenvalues --  -19.11404 -14.59159 -14.48805 -14.44595 -14.44395
 Alpha  occ. eigenvalues --  -14.42837 -14.42405 -14.41424 -14.41042 -14.40463
 Alpha  occ. eigenvalues --  -14.39008 -10.43072 -10.40232 -10.39679 -10.39461
 Alpha  occ. eigenvalues --  -10.38101 -10.37566 -10.35579 -10.34703 -10.33900
 Alpha  occ. eigenvalues --  -10.33885 -10.32241 -10.31215 -10.31051 -10.29722
 Alpha  occ. eigenvalues --  -10.29710 -10.29184 -10.28732 -10.28249 -10.27268
 Alpha  occ. eigenvalues --  -10.26395 -10.25584 -10.25295 -10.25251 -10.25043
 Alpha  occ. eigenvalues --  -10.24905 -10.24849 -10.24793 -10.24370 -10.24315
 Alpha  occ. eigenvalues --  -10.23395 -10.23252 -10.22671 -10.22316 -10.22166
 Alpha  occ. eigenvalues --  -10.20465 -10.19761  -1.18979  -1.17420  -1.15744
 Alpha  occ. eigenvalues --   -1.13197  -1.12701  -1.10523  -1.09519  -1.08556
 Alpha  occ. eigenvalues --   -1.08216  -1.06918  -1.06675  -1.05422  -1.05143
 Alpha  occ. eigenvalues --   -1.00955  -0.98994  -0.98070  -0.97937  -0.97095
 Alpha  occ. eigenvalues --   -0.96663  -0.95809  -0.94958  -0.93106  -0.91842
 Alpha  occ. eigenvalues --   -0.88106  -0.86477  -0.84965  -0.84724  -0.84049
 Alpha  occ. eigenvalues --   -0.83768  -0.82383  -0.81064  -0.80271  -0.79520
 Alpha  occ. eigenvalues --   -0.78571  -0.77542  -0.76983  -0.74876  -0.73754
 Alpha  occ. eigenvalues --   -0.73670  -0.72038  -0.71979  -0.71818  -0.71046
 Alpha  occ. eigenvalues --   -0.70901  -0.70065  -0.69875  -0.68526  -0.66646
 Alpha  occ. eigenvalues --   -0.66370  -0.66036  -0.65273  -0.64995  -0.64857
 Alpha  occ. eigenvalues --   -0.64689  -0.64300  -0.63948  -0.63551  -0.62720
 Alpha  occ. eigenvalues --   -0.62593  -0.61437  -0.61319  -0.60900  -0.59913
 Alpha  occ. eigenvalues --   -0.59032  -0.58577  -0.58343  -0.57755  -0.57097
 Alpha  occ. eigenvalues --   -0.56751  -0.56718  -0.55860  -0.55373  -0.54966
 Alpha  occ. eigenvalues --   -0.54819  -0.54251  -0.53981  -0.53573  -0.53318
 Alpha  occ. eigenvalues --   -0.52951  -0.52867  -0.52340  -0.52281  -0.52166
 Alpha  occ. eigenvalues --   -0.51819  -0.51482  -0.51219  -0.51052  -0.50870
 Alpha  occ. eigenvalues --   -0.50762  -0.50240  -0.49949  -0.49781  -0.49625
 Alpha  occ. eigenvalues --   -0.49096  -0.48885  -0.48417  -0.48173  -0.47890
 Alpha  occ. eigenvalues --   -0.47778  -0.47709  -0.47688  -0.47417  -0.47070
 Alpha  occ. eigenvalues --   -0.46949  -0.46272  -0.46215  -0.45717  -0.45544
 Alpha  occ. eigenvalues --   -0.45254  -0.45000  -0.44727  -0.44546  -0.44028
 Alpha  occ. eigenvalues --   -0.43747  -0.43652  -0.43487  -0.43400  -0.42967
 Alpha  occ. eigenvalues --   -0.42596  -0.42283  -0.42194  -0.41899  -0.41659
 Alpha  occ. eigenvalues --   -0.41577  -0.41126  -0.40935  -0.40767  -0.40449
 Alpha  occ. eigenvalues --   -0.40369  -0.40120  -0.40003  -0.39857  -0.39421
 Alpha  occ. eigenvalues --   -0.38828  -0.38759  -0.38336  -0.37496  -0.37061
 Alpha  occ. eigenvalues --   -0.35987  -0.35633  -0.35498  -0.35406  -0.34961
 Alpha  occ. eigenvalues --   -0.34419  -0.33198  -0.32721  -0.32016  -0.31984
 Alpha  occ. eigenvalues --   -0.31855  -0.31145  -0.30907  -0.30807  -0.30401
 Alpha  occ. eigenvalues --   -0.30210  -0.29377  -0.28907  -0.27998  -0.27305
 Alpha  occ. eigenvalues --   -0.24911
 Alpha virt. eigenvalues --   -0.12014  -0.10051  -0.07233  -0.06319  -0.06208
 Alpha virt. eigenvalues --   -0.05372  -0.04711  -0.04581  -0.04360  -0.04072
 Alpha virt. eigenvalues --   -0.03314  -0.02430  -0.02408  -0.01092  -0.01028

 Mulliken charges:
               1
     1  N   -0.747646
     2  H    0.414226
     3  H    0.427030
     4  H    0.426131
     5  C   -0.139733
     6  H    0.202694
     7  C    0.647845
     8  C    0.130058
     9  H    0.194012
    10  O   -0.537291
    11  C   -0.510435
    12  H    0.204304
    13  H    0.206589
    14  H    0.165459
    15  O   -0.630306
    16  H    0.424413
    17  N   -0.604125
    18  H    0.373153
    19  C   -0.072835
    20  H    0.194990
    21  C    0.635244
    22  C   -0.347543
    23  H    0.174100
    24  H    0.160559
    25  O   -0.564940
    26  C    0.149934
    27  C   -0.186865
    28  H    0.128570
    29  C   -0.197790
    30  H    0.128917
    31  C   -0.131303
    32  H    0.169602
    33  C   -0.118268
    34  H    0.142211
    35  C   -0.123653
    36  H    0.154667
    37  N   -0.613433
    38  H    0.377528
    39  C   -0.034822
    40  H    0.177122
    41  C    0.625109
    42  C   -0.449376
    43  H    0.167439
    44  H    0.167106
    45  H    0.175248
    46  O   -0.542063
    47  N   -0.629081
    48  H    0.358264
    49  C   -0.042441
    50  H    0.173181
    51  C    0.609813
    52  C   -0.271893
    53  H    0.158197
    54  H    0.201102
    55  O   -0.542432
    56  C   -0.387476
    57  H    0.202323
    58  H    0.187337
    59  C    0.585313
    60  O   -0.467771
    61  O   -0.555945
    62  N   -0.609485
    63  H    0.359730
    64  C   -0.057022
    65  H    0.186238
    66  C    0.620121
    67  C   -0.448146
    68  H    0.166851
    69  H    0.160707
    70  H    0.177793
    71  O   -0.547851
    72  N   -0.600788
    73  H    0.357255
    74  C   -0.076586
    75  H    0.176234
    76  C    0.621927
    77  C   -0.251038
    78  H    0.143981
    79  H    0.144823
    80  O   -0.555280
    81  C   -0.065855
    82  H    0.127031
    83  C   -0.443739
    84  H    0.144381
    85  H    0.141333
    86  H    0.139064
    87  C   -0.460803
    88  H    0.132789
    89  H    0.141394
    90  H    0.172399
    91  N   -0.615317
    92  H    0.349050
    93  C   -0.007729
    94  H    0.174365
    95  C    0.571829
    96  C   -0.294864
    97  H    0.132978
    98  H    0.174804
    99  O   -0.568596
   100  C   -0.274113
   101  H    0.146835
   102  H    0.189850
   103  C   -0.170081
   104  H    0.176040
   105  H    0.140331
   106  N   -0.587378
   107  H    0.375985
   108  N   -0.758486
   109  H    0.365599
   110  H    0.365492
   111  N   -0.746126
   112  H    0.410784
   113  H    0.339426
   114  C    0.777267
   115  O   -0.650199
   116  H    0.414467
 Sum of Mulliken charges =   1.00000

 Dipole moment (field-independent basis, Debye):
    X=            -12.6659    Y=             -2.9862    Z=            -25.0576  Tot=             28.2352
 Quadrupole moment (field-independent basis, Debye-Ang):
   XX=            -53.2015   YY=           -214.2621   ZZ=             71.1262
   XY=            192.8347   XZ=            304.4585   YZ=            207.1058

 Normal termination of Gaussian 16 at Thu Jun 30 14:49:49 2022.
