 Gaussian 16, Revision C.01,
 Gaussian 16:  ES64L-G16RevC.01  3-Jul-2019

 -------------------------------------------------------------------
 # B3LYP/6-31G* guess=read geom=check nosymm integral(ultrafinegrid)
 -------------------------------------------------------------------

 ------------------------------------------------------
 Candidate Structure: Conf:234 Charge calc in gas phase
 ------------------------------------------------------
 Structure from the checkpoint file:  "conf-234.chk"
 Charge =  1 Multiplicity = 1

                          Input orientation:
 ---------------------------------------------------------------------
 Center     Atomic      Atomic             Coordinates (Angstroms)
 Number     Number       Type             X           Y           Z
 ---------------------------------------------------------------------
      1          7           0       -8.877822   -4.874457   -5.902159
      2          1           0       -8.839500   -4.858345   -4.864097
      3          1           0       -9.605119   -4.208319   -6.240770
      4          1           0       -9.136087   -5.816163   -6.211042
      5          6           0       -7.602646   -4.380340   -6.571472
      6          1           0       -6.902699   -5.216097   -6.635934
      7          6           0       -7.104503   -3.230406   -5.679512
      8          6           0       -8.044791   -3.844529   -7.966390
      9          1           0       -7.229894   -3.211481   -8.340299
     10          8           0       -7.798373   -2.210396   -5.603792
     11          6           0       -8.343774   -4.942918   -8.978130
     12          1           0       -7.455882   -5.554283   -9.168397
     13          1           0       -8.660229   -4.487588   -9.919769
     14          1           0       -9.159145   -5.597483   -8.646021
     15          8           0       -9.229931   -3.078163   -7.772763
     16          1           0       -8.973217   -2.308433   -7.220572
     17          7           0       -5.984332   -3.463318   -4.987268
     18          1           0       -5.343560   -4.228579   -5.200039
     19          6           0       -5.465474   -2.562237   -3.966966
     20          1           0       -5.793831   -1.547017   -4.202727
     21          6           0       -3.930118   -2.709958   -4.034560
     22          6           0       -5.965513   -2.979742   -2.544840
     23          1           0       -5.388144   -3.856489   -2.230133
     24          1           0       -5.718354   -2.169161   -1.850394
     25          8           0       -3.449722   -3.737086   -4.524809
     26          6           0       -7.443195   -3.304816   -2.485752
     27          6           0       -7.875296   -4.638529   -2.569834
     28          1           0       -7.136933   -5.437003   -2.607805
     29          6           0       -8.411571   -2.298726   -2.375087
     30          1           0       -8.099267   -1.260334   -2.300017
     31          6           0       -9.240545   -4.956773   -2.555471
     32          1           0       -9.554103   -5.998754   -2.563047
     33          6           0       -9.772791   -2.608191   -2.363431
     34          1           0      -10.504692   -1.811248   -2.270485
     35          6           0      -10.194338   -3.936058   -2.458672
     36          1           0      -11.252984   -4.177872   -2.426181
     37          7           0       -3.225340   -1.708380   -3.496320
     38          1           0       -3.665148   -0.901195   -3.053727
     39          6           0       -1.779059   -1.731884   -3.307240
     40          1           0       -1.491099   -2.723862   -2.939912
     41          6           0       -1.505776   -0.670267   -2.217828
     42          6           0       -1.017488   -1.434589   -4.609770
     43          1           0        0.063901   -1.470186   -4.444181
     44          1           0       -1.277134   -0.440783   -4.988541
     45          1           0       -1.275155   -2.183261   -5.363532
     46          8           0       -2.389811    0.129614   -1.893495
     47          7           0       -0.271908   -0.684037   -1.691240
     48          1           0        0.441445   -1.350777   -1.978168
     49          6           0        0.187767    0.256506   -0.676959
     50          1           0       -0.156164    1.261350   -0.948980
     51          6           0        1.727784    0.176288   -0.729834
     52          6           0       -0.379240   -0.121417    0.713867
     53          1           0        0.066241   -1.069865    1.034802
     54          1           0       -1.450135   -0.301078    0.587349
     55          8           0        2.279929   -0.821293   -1.202453
     56          6           0       -0.192716    0.945187    1.796091
     57          1           0        0.858298    1.129540    2.045116
     58          1           0       -0.593679    1.914922    1.467970
     59          6           0       -0.917373    0.572177    3.074069
     60          8           0       -1.642428   -0.387000    3.223925
     61          8           0       -0.664555    1.462426    4.061186
     62          7           0        2.391255    1.230859   -0.223179
     63          1           0        1.911924    2.003523    0.233703
     64          6           0        3.831918    1.246624   -0.011509
     65          1           0        4.146485    0.242340    0.295758
     66          6           0        4.066377    2.239966    1.148630
     67          6           0        4.598835    1.640319   -1.285370
     68          1           0        5.680206    1.627505   -1.114427
     69          1           0        4.312053    2.645080   -1.612832
     70          1           0        4.367291    0.927464   -2.081395
     71          8           0        3.141402    2.948030    1.563626
     72          7           0        5.315508    2.274073    1.638157
     73          1           0        6.063925    1.690389    1.271742
     74          6           0        5.753158    3.173986    2.699849
     75          1           0        5.301505    4.155497    2.525949
     76          6           0        7.286755    3.245375    2.552236
     77          6           0        5.317463    2.633957    4.087336
     78          1           0        4.249968    2.394013    4.004699
     79          1           0        5.848214    1.687462    4.255458
     80          8           0        7.896898    2.330620    1.987297
     81          6           0        5.518758    3.564318    5.301255
     82          1           0        6.579697    3.838331    5.369559
     83          6           0        4.696550    4.858640    5.192759
     84          1           0        3.626609    4.635518    5.092387
     85          1           0        4.986148    5.473249    4.332354
     86          1           0        4.831647    5.476867    6.087055
     87          6           0        5.156265    2.806749    6.588480
     88          1           0        4.100331    2.505871    6.583962
     89          1           0        5.320233    3.434781    7.471450
     90          1           0        5.762271    1.900376    6.703912
     91          7           0        7.881975    4.328184    3.080921
     92          1           0        7.359692    5.052913    3.567936
     93          6           0        9.323841    4.497299    3.202021
     94          1           0        9.785136    3.526232    3.397632
     95          6           0        9.579780    5.439196    4.398108
     96          6           0        9.925214    5.086638    1.891765
     97          1           0        9.234877    5.856153    1.520036
     98          1           0        9.927539    4.285607    1.145698
     99          8           0       10.765292    5.340881    4.885281
    100          6           0       11.340427    5.685780    2.038712
    101          1           0       11.872562    5.616887    1.080872
    102          1           0       11.907980    5.114669    2.777637
    103          6           0       11.286986    7.164507    2.474829
    104          1           0       10.510620    7.337197    3.220925
    105          1           0       11.035491    7.795217    1.613189
    106          7           0       12.544099    7.681682    3.030566
    107          1           0       13.332706    7.756482    2.401728
    108          7           0       12.019840    7.466630    5.296060
    109          1           0       12.204758    7.813894    6.228874
    110          1           0       11.349165    6.531559    5.191079
    111          7           0       13.972801    8.572445    4.601004
    112          1           0       14.252422    9.308893    3.967255
    113          1           0       14.222847    8.723138    5.567808
    114          6           0       12.810811    7.892158    4.336310
    115          8           0        8.692722    6.244538    4.717356
    116          1           0       -1.168648    1.159457    4.839971
 ---------------------------------------------------------------------

 SCF Done:  E(RB3LYP) =  -2782.29491103     A.U. after    2 cycles

 Alpha  occ. eigenvalues --  -19.28053 -19.25209 -19.23747 -19.21037 -19.18830
 Alpha  occ. eigenvalues --  -19.18289 -19.17289 -19.16196 -19.14584 -19.12771
 Alpha  occ. eigenvalues --  -19.11957 -14.59556 -14.48880 -14.44578 -14.44023
 Alpha  occ. eigenvalues --  -14.43728 -14.42438 -14.41055 -14.40095 -14.39814
 Alpha  occ. eigenvalues --  -14.38345 -10.42734 -10.39943 -10.39062 -10.38376
 Alpha  occ. eigenvalues --  -10.38230 -10.36527 -10.35872 -10.34393 -10.34361
 Alpha  occ. eigenvalues --  -10.33212 -10.31685 -10.31218 -10.30347 -10.30332
 Alpha  occ. eigenvalues --  -10.30055 -10.29961 -10.29929 -10.29924 -10.29581
 Alpha  occ. eigenvalues --  -10.29511 -10.29207 -10.29152 -10.28313 -10.27475
 Alpha  occ. eigenvalues --  -10.26695 -10.25305 -10.25046 -10.24554 -10.24476
 Alpha  occ. eigenvalues --  -10.22805 -10.22490 -10.22021 -10.21623 -10.21528
 Alpha  occ. eigenvalues --  -10.19854 -10.19842  -1.18350  -1.15498  -1.14724
 Alpha  occ. eigenvalues --   -1.13025  -1.12918  -1.10726  -1.09214  -1.07914
 Alpha  occ. eigenvalues --   -1.07602  -1.06441  -1.05738  -1.05611  -1.05267
 Alpha  occ. eigenvalues --   -1.01192  -0.99085  -0.97686  -0.97519  -0.97460
 Alpha  occ. eigenvalues --   -0.96386  -0.96156  -0.94721  -0.94564  -0.92242
 Alpha  occ. eigenvalues --   -0.89581  -0.86544  -0.85896  -0.84947  -0.84644
 Alpha  occ. eigenvalues --   -0.84171  -0.83180  -0.82607  -0.81950  -0.78869
 Alpha  occ. eigenvalues --   -0.78108  -0.76982  -0.76389  -0.74491  -0.73374
 Alpha  occ. eigenvalues --   -0.73123  -0.72315  -0.71722  -0.71406  -0.71209
 Alpha  occ. eigenvalues --   -0.70757  -0.70682  -0.70055  -0.68740  -0.68687
 Alpha  occ. eigenvalues --   -0.68269  -0.66870  -0.66435  -0.65145  -0.64956
 Alpha  occ. eigenvalues --   -0.64687  -0.63937  -0.63175  -0.62983  -0.62089
 Alpha  occ. eigenvalues --   -0.61988  -0.61835  -0.61442  -0.61065  -0.60692
 Alpha  occ. eigenvalues --   -0.59528  -0.59058  -0.58566  -0.58142  -0.57553
 Alpha  occ. eigenvalues --   -0.56626  -0.56523  -0.56019  -0.55657  -0.55637
 Alpha  occ. eigenvalues --   -0.55230  -0.54577  -0.54284  -0.54027  -0.53697
 Alpha  occ. eigenvalues --   -0.52828  -0.52395  -0.52330  -0.52310  -0.52116
 Alpha  occ. eigenvalues --   -0.51910  -0.51603  -0.51447  -0.51191  -0.51112
 Alpha  occ. eigenvalues --   -0.50878  -0.50371  -0.50096  -0.49690  -0.49479
 Alpha  occ. eigenvalues --   -0.49264  -0.49156  -0.48868  -0.48520  -0.48166
 Alpha  occ. eigenvalues --   -0.47899  -0.47810  -0.47457  -0.47118  -0.46996
 Alpha  occ. eigenvalues --   -0.46785  -0.46411  -0.46242  -0.45782  -0.45403
 Alpha  occ. eigenvalues --   -0.45246  -0.45146  -0.44792  -0.44434  -0.44273
 Alpha  occ. eigenvalues --   -0.44168  -0.43941  -0.43735  -0.43526  -0.43048
 Alpha  occ. eigenvalues --   -0.42942  -0.42515  -0.42061  -0.42031  -0.41874
 Alpha  occ. eigenvalues --   -0.41600  -0.41327  -0.41098  -0.40666  -0.40229
 Alpha  occ. eigenvalues --   -0.39946  -0.39895  -0.39775  -0.39182  -0.39079
 Alpha  occ. eigenvalues --   -0.38723  -0.38430  -0.37781  -0.36562  -0.36071
 Alpha  occ. eigenvalues --   -0.35879  -0.35738  -0.35613  -0.35258  -0.35048
 Alpha  occ. eigenvalues --   -0.34646  -0.34618  -0.34416  -0.33083  -0.32325
 Alpha  occ. eigenvalues --   -0.31930  -0.31797  -0.31371  -0.30811  -0.30263
 Alpha  occ. eigenvalues --   -0.29538  -0.29091  -0.28562  -0.28079  -0.26664
 Alpha  occ. eigenvalues --   -0.25886
 Alpha virt. eigenvalues --   -0.13124  -0.11624  -0.10936  -0.08687  -0.06702
 Alpha virt. eigenvalues --   -0.04597  -0.04221  -0.04181  -0.03227  -0.03193
 Alpha virt. eigenvalues --   -0.03056  -0.01888  -0.01686  -0.01207  -0.00907

 Mulliken charges:
               1
     1  N   -0.756857
     2  H    0.421466
     3  H    0.420050
     4  H    0.409305
     5  C   -0.133920
     6  H    0.202267
     7  C    0.640984
     8  C    0.107870
     9  H    0.188341
    10  O   -0.536119
    11  C   -0.462523
    12  H    0.175243
    13  H    0.212695
    14  H    0.143487
    15  O   -0.627738
    16  H    0.440390
    17  N   -0.602636
    18  H    0.365662
    19  C   -0.064504
    20  H    0.198550
    21  C    0.635047
    22  C   -0.369502
    23  H    0.177948
    24  H    0.188778
    25  O   -0.548549
    26  C    0.183212
    27  C   -0.221529
    28  H    0.146599
    29  C   -0.151810
    30  H    0.156345
    31  C   -0.200378
    32  H    0.154454
    33  C   -0.126698
    34  H    0.164467
    35  C   -0.132788
    36  H    0.160085
    37  N   -0.616768
    38  H    0.363729
    39  C   -0.045590
    40  H    0.184884
    41  C    0.628224
    42  C   -0.450454
    43  H    0.169406
    44  H    0.164951
    45  H    0.182472
    46  O   -0.551403
    47  N   -0.626317
    48  H    0.361387
    49  C   -0.046099
    50  H    0.173720
    51  C    0.614326
    52  C   -0.258263
    53  H    0.164322
    54  H    0.186664
    55  O   -0.546664
    56  C   -0.384446
    57  H    0.198369
    58  H    0.184532
    59  C    0.582672
    60  O   -0.462892
    61  O   -0.562063
    62  N   -0.615425
    63  H    0.362333
    64  C   -0.047990
    65  H    0.183543
    66  C    0.625789
    67  C   -0.447893
    68  H    0.162033
    69  H    0.159117
    70  H    0.179898
    71  O   -0.555897
    72  N   -0.623265
    73  H    0.358044
    74  C   -0.050655
    75  H    0.172280
    76  C    0.613662
    77  C   -0.254694
    78  H    0.157795
    79  H    0.141737
    80  O   -0.556373
    81  C   -0.090920
    82  H    0.144995
    83  C   -0.447724
    84  H    0.146594
    85  H    0.139515
    86  H    0.152712
    87  C   -0.444141
    88  H    0.137666
    89  H    0.147685
    90  H    0.143356
    91  N   -0.618854
    92  H    0.358018
    93  C   -0.013862
    94  H    0.173719
    95  C    0.586863
    96  C   -0.282020
    97  H    0.138914
    98  H    0.167551
    99  O   -0.639078
   100  C   -0.268978
   101  H    0.128567
   102  H    0.181927
   103  C   -0.172073
   104  H    0.213894
   105  H    0.158023
   106  N   -0.597257
   107  H    0.341899
   108  N   -0.767879
   109  H    0.332253
   110  H    0.465573
   111  N   -0.761390
   112  H    0.352732
   113  H    0.354149
   114  C    0.756625
   115  O   -0.562197
   116  H    0.412712
 Sum of Mulliken charges =   1.00000

 Dipole moment (field-independent basis, Debye):
    X=            -14.8744    Y=             -5.5627    Z=            -19.2607  Tot=             24.9633
 Quadrupole moment (field-independent basis, Debye-Ang):
   XX=            205.9919   YY=           -123.2812   ZZ=           -175.0129
   XY=            349.2985   XZ=            235.0621   YZ=            151.9719

 Normal termination of Gaussian 16 at Thu Jun 30 14:49:17 2022.
