 Gaussian 16, Revision C.01,
 Gaussian 16:  ES64L-G16RevC.01  3-Jul-2019

 -------------------------------------------------------------------
 # B3LYP/6-31G* guess=read geom=check nosymm integral(ultrafinegrid)
 -------------------------------------------------------------------

 ------------------------------------------------------
 Candidate Structure: Conf:796 Charge calc in gas phase
 ------------------------------------------------------
 Structure from the checkpoint file:  "conf-796.chk"
 Charge =  1 Multiplicity = 1

                          Input orientation:
 ---------------------------------------------------------------------
 Center     Atomic      Atomic             Coordinates (Angstroms)
 Number     Number       Type             X           Y           Z
 ---------------------------------------------------------------------
      1          7           0       -9.077481   -4.423238   -6.410854
      2          1           0       -8.608361   -5.258949   -6.021638
      3          1           0       -9.547447   -3.950388   -5.613774
      4          1           0       -9.736547   -4.659625   -7.165931
      5          6           0       -8.082587   -3.413810   -6.926328
      6          1           0       -7.311277   -3.959528   -7.474424
      7          6           0       -7.568257   -2.753722   -5.629420
      8          6           0       -8.835757   -2.455959   -7.866352
      9          1           0       -9.514435   -1.842663   -7.254288
     10          8           0       -8.393714   -2.598444   -4.724800
     11          6           0       -7.882873   -1.560748   -8.650903
     12          1           0       -7.283229   -0.935784   -7.980523
     13          1           0       -8.449916   -0.888911   -9.303612
     14          1           0       -7.214244   -2.161236   -9.276506
     15          8           0       -9.589352   -3.333712   -8.709679
     16          1           0      -10.152912   -2.809722   -9.300952
     17          7           0       -6.265673   -2.470207   -5.559830
     18          1           0       -5.640318   -2.547719   -6.358496
     19          6           0       -5.582145   -2.190885   -4.301713
     20          1           0       -6.289424   -1.700828   -3.629581
     21          6           0       -4.383059   -1.294491   -4.654662
     22          6           0       -5.044062   -3.518331   -3.663851
     23          1           0       -4.175445   -3.832071   -4.255160
     24          1           0       -4.685974   -3.293892   -2.651970
     25          8           0       -3.855595   -1.402380   -5.763505
     26          6           0       -6.063617   -4.637534   -3.642904
     27          6           0       -7.013538   -4.739179   -2.616091
     28          1           0       -6.986456   -4.029122   -1.793717
     29          6           0       -6.102601   -5.581905   -4.679933
     30          1           0       -5.344575   -5.549383   -5.459972
     31          6           0       -7.988138   -5.737229   -2.635198
     32          1           0       -8.709303   -5.801020   -1.825474
     33          6           0       -7.076063   -6.590336   -4.705082
     34          1           0       -7.051420   -7.347994   -5.486035
     35          6           0       -8.029027   -6.664007   -3.681703
     36          1           0       -8.770692   -7.458392   -3.679911
     37          7           0       -3.964078   -0.485973   -3.666199
     38          1           0       -4.407276   -0.516951   -2.750511
     39          6           0       -2.664363    0.188632   -3.646631
     40          1           0       -2.015626   -0.317918   -4.367317
     41          6           0       -2.167964   -0.018052   -2.203790
     42          6           0       -2.776472    1.678832   -3.998324
     43          1           0       -1.790757    2.156022   -3.972439
     44          1           0       -3.428831    2.190895   -3.284304
     45          1           0       -3.190208    1.792837   -5.004437
     46          8           0       -2.985232    0.008498   -1.279444
     47          7           0       -0.857730   -0.281275   -2.029546
     48          1           0       -0.171896   -0.149627   -2.767906
     49          6           0       -0.295031   -0.523899   -0.708728
     50          1           0       -0.954444   -0.054940    0.025786
     51          6           0        1.103126    0.120838   -0.697481
     52          6           0       -0.164812   -2.039248   -0.392643
     53          1           0        0.090598   -2.148043    0.666264
     54          1           0        0.677916   -2.441322   -0.968755
     55          8           0        1.703987    0.320566   -1.756278
     56          6           0       -1.395341   -2.896395   -0.726899
     57          1           0       -1.617702   -2.864681   -1.796699
     58          1           0       -1.154229   -3.944049   -0.498328
     59          6           0       -2.693069   -2.598728   -0.001285
     60          8           0       -3.798479   -2.857021   -0.435514
     61          8           0       -2.496137   -2.076771    1.225617
     62          7           0        1.602090    0.392076    0.521758
     63          1           0        1.102736    0.160698    1.378833
     64          6           0        2.961133    0.855577    0.755671
     65          1           0        3.642059    0.281217    0.115126
     66          6           0        3.252401    0.539885    2.239994
     67          6           0        3.123362    2.352730    0.439615
     68          1           0        4.156513    2.678233    0.601788
     69          1           0        2.467543    2.952504    1.078973
     70          1           0        2.863418    2.532102   -0.606821
     71          8           0        2.341697    0.191775    2.994854
     72          7           0        4.532142    0.693195    2.629718
     73          1           0        5.262725    0.951116    1.976473
     74          6           0        4.989874    0.444791    3.996148
     75          1           0        4.195390    0.762351    4.674838
     76          6           0        6.246428    1.300356    4.199708
     77          6           0        5.296712   -1.061250    4.210526
     78          1           0        4.440266   -1.615590    3.804854
     79          1           0        6.165032   -1.312800    3.585818
     80          8           0        7.008474    1.460705    3.204315
     81          6           0        5.542504   -1.514673    5.665258
     82          1           0        6.309023   -0.880019    6.126319
     83          6           0        4.279658   -1.395896    6.531912
     84          1           0        3.463663   -2.011120    6.129303
     85          1           0        3.919901   -0.364232    6.606634
     86          1           0        4.490021   -1.727696    7.553585
     87          6           0        6.062626   -2.960506    5.667023
     88          1           0        5.328102   -3.647748    5.225262
     89          1           0        6.263003   -3.298846    6.689416
     90          1           0        6.994216   -3.054376    5.095194
     91          7           0        6.430652    1.794100    5.412686
     92          1           0        5.877089    1.407740    6.214764
     93          6           0        7.672865    2.258795    6.037542
     94          1           0        8.531876    1.799866    5.533435
     95          6           0        7.611647    1.658192    7.528231
     96          6           0        7.861369    3.786537    6.119499
     97          1           0        8.384308    3.959597    7.065345
     98          1           0        6.882278    4.278666    6.192201
     99          8           0        6.547445    1.021389    7.775554
    100          6           0        8.712239    4.416288    5.005638
    101          1           0        9.626842    3.818034    4.900311
    102          1           0        9.034560    5.423330    5.301867
    103          6           0        8.011049    4.497267    3.641507
    104          1           0        7.353973    5.368756    3.578367
    105          1           0        7.393204    3.617851    3.454379
    106          7           0        8.970321    4.620491    2.520610
    107          1           0        9.214121    5.548185    2.201772
    108          7           0        9.419034    2.347567    2.347725
    109          1           0       10.067427    1.615731    2.095053
    110          1           0        8.520888    2.050792    2.795943
    111          7           0       10.774766    3.896130    1.259160
    112          1           0       11.248318    4.783336    1.352773
    113          1           0       11.328861    3.142585    0.879024
    114          6           0        9.717105    3.610264    2.064342
    115          8           0        8.600626    1.911980    8.223997
    116          1           0       -3.379029   -1.919891    1.611040
 ---------------------------------------------------------------------

 SCF Done:  E(RB3LYP) =  -2782.26622606     A.U. after    1 cycles

 Alpha  occ. eigenvalues --  -19.29235 -19.25995 -19.24933 -19.20746 -19.20229
 Alpha  occ. eigenvalues --  -19.19310 -19.17957 -19.17595 -19.17027 -19.07600
 Alpha  occ. eigenvalues --  -19.06271 -14.58224 -14.48581 -14.48019 -14.47415
 Alpha  occ. eigenvalues --  -14.45789 -14.44648 -14.43559 -14.41805 -14.41039
 Alpha  occ. eigenvalues --  -14.38470 -10.43534 -10.42390 -10.39392 -10.38759
 Alpha  occ. eigenvalues --  -10.38696 -10.38001 -10.36500 -10.35109 -10.34162
 Alpha  occ. eigenvalues --  -10.33901 -10.33344 -10.31536 -10.30300 -10.30102
 Alpha  occ. eigenvalues --  -10.29635 -10.29575 -10.29455 -10.29402 -10.29227
 Alpha  occ. eigenvalues --  -10.29159 -10.28694 -10.28646 -10.28476 -10.27370
 Alpha  occ. eigenvalues --  -10.27007 -10.26548 -10.25620 -10.25307 -10.23985
 Alpha  occ. eigenvalues --  -10.23980 -10.23192 -10.21763 -10.21140 -10.20548
 Alpha  occ. eigenvalues --  -10.19268 -10.18497  -1.18050  -1.16841  -1.16416
 Alpha  occ. eigenvalues --   -1.12832  -1.12034  -1.12017  -1.11401  -1.09896
 Alpha  occ. eigenvalues --   -1.08897  -1.07850  -1.07664  -1.05057  -1.01374
 Alpha  occ. eigenvalues --   -1.01214  -1.00635  -0.99881  -0.99802  -0.98474
 Alpha  occ. eigenvalues --   -0.97406  -0.95463  -0.95352  -0.92496  -0.91847
 Alpha  occ. eigenvalues --   -0.88967  -0.87380  -0.85522  -0.84964  -0.84502
 Alpha  occ. eigenvalues --   -0.84265  -0.84187  -0.82714  -0.82309  -0.79667
 Alpha  occ. eigenvalues --   -0.78928  -0.77425  -0.77193  -0.75454  -0.74284
 Alpha  occ. eigenvalues --   -0.73534  -0.72909  -0.72247  -0.71410  -0.71121
 Alpha  occ. eigenvalues --   -0.70640  -0.70116  -0.70017  -0.69704  -0.69382
 Alpha  occ. eigenvalues --   -0.68679  -0.68121  -0.67610  -0.66446  -0.66230
 Alpha  occ. eigenvalues --   -0.65804  -0.65520  -0.64659  -0.64278  -0.63589
 Alpha  occ. eigenvalues --   -0.62937  -0.62676  -0.61601  -0.61173  -0.60554
 Alpha  occ. eigenvalues --   -0.60410  -0.59302  -0.59065  -0.58454  -0.58151
 Alpha  occ. eigenvalues --   -0.58083  -0.56729  -0.56157  -0.56103  -0.55690
 Alpha  occ. eigenvalues --   -0.55654  -0.55269  -0.55010  -0.54743  -0.54304
 Alpha  occ. eigenvalues --   -0.54021  -0.53819  -0.53540  -0.53030  -0.52682
 Alpha  occ. eigenvalues --   -0.52349  -0.52159  -0.52070  -0.51674  -0.51477
 Alpha  occ. eigenvalues --   -0.51334  -0.51017  -0.50840  -0.50272  -0.50115
 Alpha  occ. eigenvalues --   -0.50051  -0.49676  -0.49343  -0.49306  -0.48822
 Alpha  occ. eigenvalues --   -0.48390  -0.47996  -0.47572  -0.47283  -0.47187
 Alpha  occ. eigenvalues --   -0.47038  -0.46599  -0.46409  -0.46233  -0.46009
 Alpha  occ. eigenvalues --   -0.45923  -0.45693  -0.45276  -0.45264  -0.44636
 Alpha  occ. eigenvalues --   -0.44519  -0.44042  -0.43972  -0.43621  -0.43530
 Alpha  occ. eigenvalues --   -0.43379  -0.43107  -0.42782  -0.42671  -0.42188
 Alpha  occ. eigenvalues --   -0.41960  -0.41645  -0.41452  -0.40586  -0.40063
 Alpha  occ. eigenvalues --   -0.39740  -0.39633  -0.39383  -0.38873  -0.38386
 Alpha  occ. eigenvalues --   -0.38241  -0.38178  -0.37930  -0.37478  -0.36615
 Alpha  occ. eigenvalues --   -0.35574  -0.35362  -0.35029  -0.34982  -0.34864
 Alpha  occ. eigenvalues --   -0.34785  -0.34588  -0.34081  -0.33992  -0.33854
 Alpha  occ. eigenvalues --   -0.33604  -0.32735  -0.32188  -0.32006  -0.31574
 Alpha  occ. eigenvalues --   -0.30769  -0.30036  -0.29615  -0.22497  -0.22418
 Alpha  occ. eigenvalues --   -0.20501
 Alpha virt. eigenvalues --   -0.12244  -0.10877  -0.10437  -0.07815  -0.07041
 Alpha virt. eigenvalues --   -0.06869  -0.05582  -0.04769  -0.04686  -0.04685
 Alpha virt. eigenvalues --   -0.03932  -0.03823  -0.03135  -0.02015  -0.01503

 Mulliken charges:
               1
     1  N   -0.749009
     2  H    0.409998
     3  H    0.418794
     4  H    0.422722
     5  C   -0.120234
     6  H    0.204301
     7  C    0.657872
     8  C    0.132611
     9  H    0.170630
    10  O   -0.532330
    11  C   -0.481285
    12  H    0.184722
    13  H    0.183079
    14  H    0.180331
    15  O   -0.649171
    16  H    0.430013
    17  N   -0.599308
    18  H    0.360426
    19  C   -0.070555
    20  H    0.197304
    21  C    0.628143
    22  C   -0.397076
    23  H    0.166808
    24  H    0.226967
    25  O   -0.543866
    26  C    0.173359
    27  C   -0.152650
    28  H    0.164891
    29  C   -0.203002
    30  H    0.139823
    31  C   -0.129115
    32  H    0.160613
    33  C   -0.202479
    34  H    0.153171
    35  C   -0.147029
    36  H    0.155983
    37  N   -0.604506
    38  H    0.366506
    39  C   -0.050657
    40  H    0.179490
    41  C    0.614622
    42  C   -0.444423
    43  H    0.165738
    44  H    0.173159
    45  H    0.174127
    46  O   -0.541177
    47  N   -0.608514
    48  H    0.355313
    49  C   -0.063660
    50  H    0.197957
    51  C    0.620011
    52  C   -0.267171
    53  H    0.179207
    54  H    0.158768
    55  O   -0.549986
    56  C   -0.365095
    57  H    0.169824
    58  H    0.191008
    59  C    0.621512
    60  O   -0.489894
    61  O   -0.556073
    62  N   -0.616781
    63  H    0.363967
    64  C   -0.038583
    65  H    0.173354
    66  C    0.624040
    67  C   -0.446843
    68  H    0.144654
    69  H    0.164621
    70  H    0.184288
    71  O   -0.541651
    72  N   -0.623353
    73  H    0.341789
    74  C   -0.044534
    75  H    0.187481
    76  C    0.613754
    77  C   -0.256227
    78  H    0.148992
    79  H    0.128248
    80  O   -0.631536
    81  C   -0.095676
    82  H    0.168515
    83  C   -0.438683
    84  H    0.127691
    85  H    0.148370
    86  H    0.163140
    87  C   -0.444134
    88  H    0.129558
    89  H    0.156565
    90  H    0.131283
    91  N   -0.582183
    92  H    0.380544
    93  C   -0.087900
    94  H    0.130342
    95  C    0.587977
    96  C   -0.269067
    97  H    0.197293
    98  H    0.135854
    99  O   -0.600053
   100  C   -0.271104
   101  H    0.145660
   102  H    0.141087
   103  C   -0.191893
   104  H    0.171552
   105  H    0.212074
   106  N   -0.589074
   107  H    0.350598
   108  N   -0.783372
   109  H    0.357757
   110  H    0.454256
   111  N   -0.765036
   112  H    0.367775
   113  H    0.367688
   114  C    0.792016
   115  O   -0.565617
   116  H    0.418982
 Sum of Mulliken charges =   1.00000

 Dipole moment (field-independent basis, Debye):
    X=            -18.7062    Y=             -6.1528    Z=            -37.7302  Tot=             42.5600
 Quadrupole moment (field-independent basis, Debye-Ang):
   XX=            131.0397   YY=           -204.6983   ZZ=           -305.7590
   XY=            220.5623   XZ=            131.2759   YZ=             88.7116

 Normal termination of Gaussian 16 at Thu Jun 30 14:51:06 2022.
