 Gaussian 16, Revision C.01,
 Gaussian 16:  ES64L-G16RevC.01  3-Jul-2019

 -------------------------------------------------------------------
 # B3LYP/6-31G* guess=read geom=check nosymm integral(ultrafinegrid)
 -------------------------------------------------------------------

 ------------------------------------------------------
 Candidate Structure: Conf:651 Charge calc in gas phase
 ------------------------------------------------------
 Structure from the checkpoint file:  "conf-651.chk"
 Charge =  1 Multiplicity = 1

                          Input orientation:
 ---------------------------------------------------------------------
 Center     Atomic      Atomic             Coordinates (Angstroms)
 Number     Number       Type             X           Y           Z
 ---------------------------------------------------------------------
      1          7           0       -6.787362   -6.161231   -6.918686
      2          1           0       -6.501951   -6.502398   -5.978790
      3          1           0       -7.785418   -5.861651   -6.900961
      4          1           0       -6.695404   -6.927254   -7.592228
      5          6           0       -6.045037   -4.911456   -7.368582
      6          1           0       -5.095338   -5.217244   -7.812769
      7          6           0       -5.884123   -4.062706   -6.095994
      8          6           0       -6.993142   -4.204496   -8.383940
      9          1           0       -6.638117   -3.171145   -8.488611
     10          8           0       -6.906511   -3.622219   -5.559058
     11          6           0       -7.031963   -4.871804   -9.752457
     12          1           0       -6.043014   -4.864308  -10.221779
     13          1           0       -7.726626   -4.328180  -10.397498
     14          1           0       -7.388392   -5.907776   -9.695135
     15          8           0       -8.306404   -4.233264   -7.833836
     16          1           0       -8.276113   -3.689929   -7.017135
     17          7           0       -4.639017   -3.921480   -5.629007
     18          1           0       -3.813217   -4.195762   -6.157609
     19          6           0       -4.325866   -3.336018   -4.329298
     20          1           0       -5.132977   -2.649905   -4.062466
     21          6           0       -2.971412   -2.626494   -4.510246
     22          6           0       -4.167038   -4.455511   -3.248593
     23          1           0       -3.219576   -4.968697   -3.448546
     24          1           0       -4.070397   -3.991941   -2.260428
     25          8           0       -2.155004   -3.098415   -5.304278
     26          6           0       -5.294922   -5.465079   -3.256427
     27          6           0       -6.518516   -5.199711   -2.627880
     28          1           0       -6.652022   -4.263661   -2.092196
     29          6           0       -5.142762   -6.691957   -3.922985
     30          1           0       -4.182596   -6.938471   -4.372278
     31          6           0       -7.567528   -6.119324   -2.676472
     32          1           0       -8.504876   -5.892857   -2.176846
     33          6           0       -6.190160   -7.623231   -3.970832
     34          1           0       -6.032968   -8.592499   -4.440154
     35          6           0       -7.411802   -7.331818   -3.351684
     36          1           0       -8.220764   -8.056801   -3.368914
     37          7           0       -2.760717   -1.555399   -3.726079
     38          1           0       -3.475319   -1.233868   -3.080149
     39          6           0       -1.448146   -0.931770   -3.520330
     40          1           0       -0.696431   -1.645101   -3.868168
     41          6           0       -1.377667   -0.720997   -1.996642
     42          6           0       -1.314198    0.395105   -4.276532
     43          1           0       -0.322837    0.830530   -4.110781
     44          1           0       -2.067518    1.107853   -3.927919
     45          1           0       -1.444690    0.229645   -5.349896
     46          8           0       -2.338817   -0.203361   -1.421002
     47          7           0       -0.279947   -1.192675   -1.376464
     48          1           0        0.528470   -1.522430   -1.899085
     49          6           0       -0.044501   -1.128337    0.061226
     50          1           0       -0.537236   -0.234825    0.458876
     51          6           0        1.487361   -1.034425    0.230194
     52          6           0       -0.572783   -2.397937    0.777080
     53          1           0       -0.172158   -2.441520    1.795336
     54          1           0       -0.163460   -3.263304    0.241999
     55          8           0        2.234882   -1.420728   -0.671275
     56          6           0       -2.117543   -2.467086    0.821335
     57          1           0       -2.484129   -1.871920    1.666690
     58          1           0       -2.559283   -2.049854   -0.081378
     59          6           0       -2.639376   -3.876603    0.962061
     60          8           0       -3.358605   -4.444358    0.162607
     61          8           0       -2.206066   -4.473391    2.094728
     62          7           0        1.912023   -0.550275    1.410641
     63          1           0        1.270213   -0.281172    2.153096
     64          6           0        3.311646   -0.512100    1.809532
     65          1           0        3.786510   -1.453228    1.508435
     66          6           0        3.303579   -0.400530    3.348185
     67          6           0        4.067286    0.661236    1.159291
     68          1           0        5.118557    0.671628    1.465968
     69          1           0        3.613131    1.614889    1.447597
     70          1           0        4.024423    0.560161    0.071841
     71          8           0        2.267016   -0.106906    3.948374
     72          7           0        4.488618   -0.641005    3.946772
     73          1           0        5.334707   -0.717488    3.387847
     74          6           0        4.762146   -0.361108    5.351248
     75          1           0        3.990722    0.323319    5.715898
     76          6           0        6.143150    0.323366    5.390258
     77          6           0        4.794896   -1.642904    6.219171
     78          1           0        5.565848   -2.303861    5.800306
     79          1           0        5.136087   -1.369515    7.227531
     80          8           0        6.930880    0.203448    4.447286
     81          6           0        3.464131   -2.411773    6.333316
     82          1           0        3.105369   -2.620757    5.315758
     83          6           0        3.708252   -3.757609    7.033999
     84          1           0        4.074564   -3.608078    8.057764
     85          1           0        4.450762   -4.362130    6.499283
     86          1           0        2.781923   -4.340254    7.096266
     87          6           0        2.381049   -1.603055    7.062816
     88          1           0        2.715409   -1.315240    8.068441
     89          1           0        1.469183   -2.200653    7.178537
     90          1           0        2.109220   -0.699222    6.509655
     91          7           0        6.412303    1.018064    6.516384
     92          1           0        5.784305    0.952448    7.313994
     93          6           0        7.750697    1.459917    6.886628
     94          1           0        8.475314    0.817309    6.377733
     95          6           0        7.895821    1.238258    8.401578
     96          6           0        8.024184    2.941867    6.525484
     97          1           0        8.823087    3.327262    7.167788
     98          1           0        7.122931    3.517314    6.766944
     99          8           0        9.126657    1.363392    8.877779
    100          6           0        8.412540    3.160712    5.057561
    101          1           0        8.407389    4.238875    4.845040
    102          1           0        7.668584    2.701539    4.397159
    103          6           0        9.787007    2.585481    4.680956
    104          1           0        9.934270    2.695167    3.599265
    105          1           0        9.839358    1.517131    4.899914
    106          7           0       10.921192    3.218973    5.346945
    107          1           0       11.153989    4.163930    5.075168
    108          7           0       11.174984    1.711265    7.114370
    109          1           0       11.911218    1.345199    7.717656
    110          1           0        9.802329    1.515001    8.140470
    111          7           0       12.818797    3.371914    6.630186
    112          1           0       13.363817    3.621312    5.813643
    113          1           0       13.380338    3.018870    7.393378
    114          6           0       11.621771    2.702940    6.400266
    115          8           0        6.935336    0.990122    9.105574
    116          1           0       -2.579101   -5.375470    2.099712
 ---------------------------------------------------------------------

 SCF Done:  E(RB3LYP) =  -2782.29915646     A.U. after    2 cycles

 Alpha  occ. eigenvalues --  -19.28073 -19.26162 -19.25220 -19.21192 -19.20733
 Alpha  occ. eigenvalues --  -19.20211 -19.19087 -19.18331 -19.17647 -19.16893
 Alpha  occ. eigenvalues --  -19.16125 -14.59534 -14.49112 -14.45392 -14.43592
 Alpha  occ. eigenvalues --  -14.42152 -14.41244 -14.40845 -14.40822 -14.40479
 Alpha  occ. eigenvalues --  -14.35129 -10.42811 -10.40010 -10.38760 -10.38519
 Alpha  occ. eigenvalues --  -10.38441 -10.36469 -10.35481 -10.34991 -10.34622
 Alpha  occ. eigenvalues --  -10.34459 -10.34389 -10.33781 -10.31577 -10.30777
 Alpha  occ. eigenvalues --  -10.30416 -10.30033 -10.29908 -10.29738 -10.29495
 Alpha  occ. eigenvalues --  -10.29408 -10.29131 -10.28988 -10.28887 -10.28208
 Alpha  occ. eigenvalues --  -10.27482 -10.26890 -10.26713 -10.26229 -10.25487
 Alpha  occ. eigenvalues --  -10.23775 -10.23225 -10.23072 -10.22922 -10.22729
 Alpha  occ. eigenvalues --  -10.20866 -10.20328  -1.18388  -1.17058  -1.15532
 Alpha  occ. eigenvalues --   -1.13225  -1.12963  -1.11844  -1.11266  -1.10246
 Alpha  occ. eigenvalues --   -1.09382  -1.08401  -1.07935  -1.05417  -1.03969
 Alpha  occ. eigenvalues --   -1.03686  -1.01666  -0.99991  -0.98780  -0.97917
 Alpha  occ. eigenvalues --   -0.97137  -0.95919  -0.94572  -0.92271  -0.90210
 Alpha  occ. eigenvalues --   -0.89419  -0.87567  -0.86006  -0.85573  -0.85127
 Alpha  occ. eigenvalues --   -0.84738  -0.83937  -0.83266  -0.82674  -0.80216
 Alpha  occ. eigenvalues --   -0.79277  -0.77280  -0.76714  -0.74513  -0.73402
 Alpha  occ. eigenvalues --   -0.73260  -0.72430  -0.72349  -0.72251  -0.71586
 Alpha  occ. eigenvalues --   -0.71489  -0.70840  -0.70450  -0.69453  -0.68513
 Alpha  occ. eigenvalues --   -0.67619  -0.66875  -0.66583  -0.66264  -0.65969
 Alpha  occ. eigenvalues --   -0.65229  -0.64768  -0.64068  -0.63435  -0.63049
 Alpha  occ. eigenvalues --   -0.62385  -0.62225  -0.61571  -0.61116  -0.60594
 Alpha  occ. eigenvalues --   -0.59584  -0.59329  -0.58871  -0.58396  -0.58057
 Alpha  occ. eigenvalues --   -0.57780  -0.56740  -0.56398  -0.56198  -0.55607
 Alpha  occ. eigenvalues --   -0.55379  -0.55012  -0.54750  -0.54237  -0.53890
 Alpha  occ. eigenvalues --   -0.53804  -0.53667  -0.53029  -0.52634  -0.52394
 Alpha  occ. eigenvalues --   -0.52186  -0.52101  -0.52052  -0.51752  -0.51459
 Alpha  occ. eigenvalues --   -0.51277  -0.51102  -0.50758  -0.50640  -0.50176
 Alpha  occ. eigenvalues --   -0.49932  -0.49736  -0.49530  -0.49247  -0.48886
 Alpha  occ. eigenvalues --   -0.48658  -0.48509  -0.48050  -0.47462  -0.47307
 Alpha  occ. eigenvalues --   -0.47142  -0.47120  -0.46806  -0.46676  -0.46508
 Alpha  occ. eigenvalues --   -0.46302  -0.45859  -0.45477  -0.45448  -0.45275
 Alpha  occ. eigenvalues --   -0.44577  -0.44314  -0.44149  -0.44098  -0.44010
 Alpha  occ. eigenvalues --   -0.43868  -0.43603  -0.43163  -0.42995  -0.42839
 Alpha  occ. eigenvalues --   -0.42446  -0.42302  -0.42057  -0.41894  -0.41788
 Alpha  occ. eigenvalues --   -0.41542  -0.40917  -0.40798  -0.39802  -0.39554
 Alpha  occ. eigenvalues --   -0.39153  -0.38805  -0.38663  -0.38415  -0.38303
 Alpha  occ. eigenvalues --   -0.36735  -0.36206  -0.36091  -0.35809  -0.35501
 Alpha  occ. eigenvalues --   -0.35196  -0.34496  -0.34150  -0.33640  -0.33619
 Alpha  occ. eigenvalues --   -0.33202  -0.32647  -0.32474  -0.31911  -0.31711
 Alpha  occ. eigenvalues --   -0.31419  -0.31047  -0.30775  -0.29922  -0.29612
 Alpha  occ. eigenvalues --   -0.28451
 Alpha virt. eigenvalues --   -0.13099  -0.11452  -0.10753  -0.08688  -0.07423
 Alpha virt. eigenvalues --   -0.06295  -0.04836  -0.04258  -0.03964  -0.03375
 Alpha virt. eigenvalues --   -0.03025  -0.02504  -0.01685  -0.01416  -0.01125

 Mulliken charges:
               1
     1  N   -0.756584
     2  H    0.421555
     3  H    0.419944
     4  H    0.408628
     5  C   -0.135270
     6  H    0.200541
     7  C    0.644641
     8  C    0.108766
     9  H    0.187560
    10  O   -0.537024
    11  C   -0.462548
    12  H    0.174611
    13  H    0.212788
    14  H    0.143740
    15  O   -0.627388
    16  H    0.440307
    17  N   -0.599174
    18  H    0.362545
    19  C   -0.069703
    20  H    0.193523
    21  C    0.631922
    22  C   -0.380010
    23  H    0.173837
    24  H    0.214587
    25  O   -0.541070
    26  C    0.189191
    27  C   -0.149655
    28  H    0.157245
    29  C   -0.226051
    30  H    0.143758
    31  C   -0.126799
    32  H    0.162821
    33  C   -0.201541
    34  H    0.151950
    35  C   -0.132121
    36  H    0.158324
    37  N   -0.603940
    38  H    0.356128
    39  C   -0.046955
    40  H    0.181718
    41  C    0.618081
    42  C   -0.446055
    43  H    0.168496
    44  H    0.175757
    45  H    0.170569
    46  O   -0.546658
    47  N   -0.604076
    48  H    0.359897
    49  C   -0.067171
    50  H    0.185980
    51  C    0.622675
    52  C   -0.270030
    53  H    0.176893
    54  H    0.161882
    55  O   -0.543969
    56  C   -0.349426
    57  H    0.184071
    58  H    0.197043
    59  C    0.560409
    60  O   -0.474616
    61  O   -0.547826
    62  N   -0.617312
    63  H    0.359214
    64  C   -0.041522
    65  H    0.181421
    66  C    0.615258
    67  C   -0.454137
    68  H    0.163137
    69  H    0.162483
    70  H    0.185670
    71  O   -0.540523
    72  N   -0.603020
    73  H    0.354831
    74  C   -0.077952
    75  H    0.184300
    76  C    0.616599
    77  C   -0.258082
    78  H    0.142748
    79  H    0.151570
    80  O   -0.553071
    81  C   -0.065496
    82  H    0.129258
    83  C   -0.445360
    84  H    0.148578
    85  H    0.139995
    86  H    0.142836
    87  C   -0.463270
    88  H    0.140214
    89  H    0.141247
    90  H    0.171329
    91  N   -0.603360
    92  H    0.356715
    93  C   -0.087524
    94  H    0.193922
    95  C    0.602422
    96  C   -0.265303
    97  H    0.159177
    98  H    0.153875
    99  O   -0.612131
   100  C   -0.268326
   101  H    0.130169
   102  H    0.167667
   103  C   -0.140435
   104  H    0.150992
   105  H    0.194841
   106  N   -0.592842
   107  H    0.330092
   108  N   -0.733862
   109  H    0.294757
   110  H    0.473257
   111  N   -0.757795
   112  H    0.334997
   113  H    0.337727
   114  C    0.661146
   115  O   -0.482607
   116  H    0.414760
 Sum of Mulliken charges =   1.00000

 Dipole moment (field-independent basis, Debye):
    X=            -11.6859    Y=            -18.8634    Z=            -23.4704  Tot=             32.2994
 Quadrupole moment (field-independent basis, Debye-Ang):
   XX=            -17.5419   YY=           -168.3081   ZZ=           -173.3977
   XY=            199.5388   XZ=            202.5447   YZ=            156.1464

 Normal termination of Gaussian 16 at Thu Jun 30 14:51:41 2022.
