 Gaussian 16, Revision C.01,
 Gaussian 16:  ES64L-G16RevC.01  3-Jul-2019

 -------------------------------------------------------------------
 # B3LYP/6-31G* guess=read geom=check nosymm integral(ultrafinegrid)
 -------------------------------------------------------------------

 -----------------------------------------------------
 Candidate Structure: Conf:34 Charge calc in gas phase
 -----------------------------------------------------
 Structure from the checkpoint file:  "conf-34.chk"
 Charge =  1 Multiplicity = 1

                          Input orientation:
 ---------------------------------------------------------------------
 Center     Atomic      Atomic             Coordinates (Angstroms)
 Number     Number       Type             X           Y           Z
 ---------------------------------------------------------------------
      1          7           0       -6.950889   -6.793705   -5.997595
      2          1           0       -7.004399   -7.624425   -5.402035
      3          1           0       -7.591325   -6.058576   -5.607082
      4          1           0       -7.164817   -7.051232   -6.975509
      5          6           0       -5.595435   -6.135224   -5.973774
      6          1           0       -4.850261   -6.885074   -5.698829
      7          6           0       -5.751868   -5.007397   -4.920640
      8          6           0       -5.311287   -5.592378   -7.398835
      9          1           0       -5.914837   -4.683677   -7.545731
     10          8           0       -6.905437   -4.652639   -4.641211
     11          6           0       -3.834324   -5.289549   -7.628515
     12          1           0       -3.465222   -4.510998   -6.953692
     13          1           0       -3.687603   -4.926615   -8.651318
     14          1           0       -3.231284   -6.194193   -7.498684
     15          8           0       -5.787870   -6.633605   -8.259695
     16          1           0       -5.723669   -6.346050   -9.184673
     17          7           0       -4.630228   -4.497064   -4.429208
     18          1           0       -3.700673   -4.806752   -4.723242
     19          6           0       -4.550351   -3.352408   -3.520648
     20          1           0       -5.323555   -2.629059   -3.795943
     21          6           0       -3.139762   -2.775579   -3.785009
     22          6           0       -4.766875   -3.806939   -2.048543
     23          1           0       -5.722524   -4.344635   -2.030684
     24          1           0       -3.981715   -4.528498   -1.795635
     25          8           0       -2.293400   -3.485724   -4.346553
     26          6           0       -4.787250   -2.677041   -1.040921
     27          6           0       -3.751129   -2.530118   -0.109580
     28          1           0       -2.927274   -3.240713   -0.108347
     29          6           0       -5.849177   -1.760145   -1.019440
     30          1           0       -6.675955   -1.872777   -1.718843
     31          6           0       -3.770567   -1.491172    0.822489
     32          1           0       -2.967137   -1.380473    1.543855
     33          6           0       -5.867021   -0.715252   -0.094581
     34          1           0       -6.697111   -0.014339   -0.089496
     35          6           0       -4.826992   -0.578863    0.827043
     36          1           0       -4.833642    0.229105    1.552299
     37          7           0       -2.919795   -1.519892   -3.379454
     38          1           0       -3.630577   -0.980292   -2.889389
     39          6           0       -1.610888   -0.874584   -3.452706
     40          1           0       -0.850226   -1.603003   -3.150549
     41          6           0       -1.672747    0.293403   -2.452392
     42          6           0       -1.292649   -0.368071   -4.870230
     43          1           0       -0.303785    0.101084   -4.896976
     44          1           0       -2.037371    0.369066   -5.186476
     45          1           0       -1.296291   -1.208398   -5.569167
     46          8           0       -2.747390    0.830474   -2.185285
     47          7           0       -0.487910    0.688623   -1.938968
     48          1           0        0.368604    0.169092   -2.103308
     49          6           0       -0.377456    1.744216   -0.939411
     50          1           0       -0.985115    2.596147   -1.265891
     51          6           0        1.111932    2.114337   -0.889265
     52          6           0       -0.890278    1.240182    0.432591
     53          1           0       -0.270143    0.392420    0.743626
     54          1           0       -1.902024    0.860032    0.273866
     55          8           0        1.971217    1.253926   -1.109502
     56          6           0       -0.918401    2.295223    1.539262
     57          1           0        0.080815    2.664950    1.793210
     58          1           0       -1.505721    3.174804    1.236623
     59          6           0       -1.548718    1.757908    2.810402
     60          8           0       -2.156375    0.713332    2.915241
     61          8           0       -1.358566    2.603498    3.844701
     62          7           0        1.415550    3.392367   -0.571484
     63          1           0        0.668400    4.046759   -0.378308
     64          6           0        2.800074    3.873100   -0.432511
     65          1           0        3.389435    3.310559   -1.163501
     66          6           0        3.346027    3.549759    0.983681
     67          6           0        2.870187    5.365831   -0.731939
     68          1           0        3.907404    5.706914   -0.682325
     69          1           0        2.302426    5.939996    0.007075
     70          1           0        2.482461    5.573640   -1.733938
     71          8           0        3.515927    4.440334    1.825145
     72          7           0        3.571886    2.245364    1.210776
     73          1           0        3.434638    1.602730    0.436335
     74          6           0        4.087525    1.710361    2.465280
     75          1           0        3.501707    2.137896    3.287028
     76          6           0        5.563988    2.115166    2.700050
     77          6           0        3.956462    0.169949    2.459797
     78          1           0        4.497315   -0.206569    1.578474
     79          1           0        4.485571   -0.230178    3.333361
     80          8           0        6.219569    2.702393    1.810006
     81          6           0        2.517010   -0.383832    2.448336
     82          1           0        1.992904    0.014955    1.565952
     83          6           0        2.564597   -1.913595    2.308189
     84          1           0        3.091044   -2.365063    3.157427
     85          1           0        3.088037   -2.215210    1.393020
     86          1           0        1.553871   -2.338207    2.275482
     87          6           0        1.728147    0.015926    3.705016
     88          1           0        2.236384   -0.340043    4.609339
     89          1           0        0.723126   -0.423235    3.688964
     90          1           0        1.609059    1.102644    3.797486
     91          7           0        6.042789    1.765215    3.896870
     92          1           0        5.439821    1.155343    4.494876
     93          6           0        7.390508    1.215538    4.143663
     94          1           0        7.799489    0.860110    3.189315
     95          6           0        7.114827   -0.086321    5.049108
     96          6           0        8.433151    2.114537    4.821828
     97          1           0        9.072196    1.404290    5.355993
     98          1           0        7.947505    2.741691    5.582093
     99          8           0        5.884926   -0.324434    5.252393
    100          6           0        9.338158    2.971679    3.906285
    101          1           0        9.404808    2.523994    2.905901
    102          1           0       10.360497    2.967265    4.304152
    103          6           0        8.962674    4.448479    3.773957
    104          1           0        9.753372    4.984660    3.227449
    105          1           0        8.887009    4.887003    4.778302
    106          7           0        7.683876    4.633163    3.081686
    107          1           0        7.253698    3.820878    2.585106
    108          7           0        7.509768    6.869970    3.698169
    109          1           0        7.080925    7.767478    3.527383
    110          1           0        8.486866    6.893616    3.948154
    111          7           0        5.828807    5.871836    2.441626
    112          1           0        5.292612    5.033815    2.202546
    113          1           0        5.245076    6.672308    2.639297
    114          6           0        7.013056    5.771185    3.072469
    115          8           0        8.127460   -0.685979    5.424048
    116          1           0       -1.786222    2.198841    4.623687
 ---------------------------------------------------------------------

 SCF Done:  E(RB3LYP) =  -2782.27163070     A.U. after    1 cycles

 Alpha  occ. eigenvalues --  -19.30654 -19.26578 -19.26170 -19.21962 -19.20903
 Alpha  occ. eigenvalues --  -19.20865 -19.20032 -19.18410 -19.16443 -19.07298
 Alpha  occ. eigenvalues --  -19.06035 -14.59538 -14.49481 -14.45945 -14.45556
 Alpha  occ. eigenvalues --  -14.45427 -14.44390 -14.43655 -14.43399 -14.41915
 Alpha  occ. eigenvalues --  -14.36696 -10.43709 -10.40839 -10.40833 -10.40182
 Alpha  occ. eigenvalues --  -10.39082 -10.38976 -10.37880 -10.37228 -10.35369
 Alpha  occ. eigenvalues --  -10.34673 -10.32394 -10.32293 -10.32153 -10.31167
 Alpha  occ. eigenvalues --  -10.31134 -10.29075 -10.28972 -10.27941 -10.27692
 Alpha  occ. eigenvalues --  -10.27254 -10.26629 -10.26383 -10.26113 -10.25882
 Alpha  occ. eigenvalues --  -10.25751 -10.25536 -10.25306 -10.25215 -10.24951
 Alpha  occ. eigenvalues --  -10.23247 -10.23032 -10.22442 -10.22299 -10.21287
 Alpha  occ. eigenvalues --  -10.20977 -10.20001  -1.19473  -1.17809  -1.17185
 Alpha  occ. eigenvalues --   -1.13956  -1.13241  -1.12941  -1.11856  -1.10041
 Alpha  occ. eigenvalues --   -1.09532  -1.08194  -1.07019  -1.06080  -1.01979
 Alpha  occ. eigenvalues --   -1.01510  -1.00887  -1.00208  -0.98688  -0.98380
 Alpha  occ. eigenvalues --   -0.97728  -0.94241  -0.93805  -0.92669  -0.91299
 Alpha  occ. eigenvalues --   -0.89027  -0.88297  -0.85602  -0.85548  -0.85056
 Alpha  occ. eigenvalues --   -0.84501  -0.83587  -0.81920  -0.81141  -0.80660
 Alpha  occ. eigenvalues --   -0.79784  -0.77672  -0.76676  -0.75698  -0.74662
 Alpha  occ. eigenvalues --   -0.74179  -0.73595  -0.72462  -0.72167  -0.71935
 Alpha  occ. eigenvalues --   -0.71860  -0.70903  -0.69962  -0.69267  -0.68128
 Alpha  occ. eigenvalues --   -0.67473  -0.67235  -0.67160  -0.66640  -0.66566
 Alpha  occ. eigenvalues --   -0.65694  -0.65425  -0.65260  -0.64796  -0.63897
 Alpha  occ. eigenvalues --   -0.63553  -0.61923  -0.61804  -0.60645  -0.59694
 Alpha  occ. eigenvalues --   -0.59589  -0.58894  -0.58593  -0.58338  -0.58006
 Alpha  occ. eigenvalues --   -0.57549  -0.57441  -0.57076  -0.56846  -0.56559
 Alpha  occ. eigenvalues --   -0.56324  -0.55781  -0.55385  -0.54708  -0.54667
 Alpha  occ. eigenvalues --   -0.54470  -0.54139  -0.53964  -0.53575  -0.53176
 Alpha  occ. eigenvalues --   -0.52965  -0.52794  -0.52424  -0.52307  -0.52027
 Alpha  occ. eigenvalues --   -0.51768  -0.51152  -0.50365  -0.50271  -0.50153
 Alpha  occ. eigenvalues --   -0.49717  -0.49697  -0.48921  -0.48835  -0.48677
 Alpha  occ. eigenvalues --   -0.48616  -0.48500  -0.48338  -0.48049  -0.47795
 Alpha  occ. eigenvalues --   -0.47342  -0.47270  -0.46707  -0.46611  -0.46157
 Alpha  occ. eigenvalues --   -0.45960  -0.45683  -0.45607  -0.45334  -0.45198
 Alpha  occ. eigenvalues --   -0.44919  -0.44844  -0.44223  -0.44030  -0.43793
 Alpha  occ. eigenvalues --   -0.43217  -0.42974  -0.42741  -0.42665  -0.42194
 Alpha  occ. eigenvalues --   -0.42101  -0.41712  -0.41625  -0.41373  -0.41049
 Alpha  occ. eigenvalues --   -0.40978  -0.40710  -0.39712  -0.39021  -0.38481
 Alpha  occ. eigenvalues --   -0.38213  -0.37573  -0.36978  -0.36754  -0.36563
 Alpha  occ. eigenvalues --   -0.36459  -0.36258  -0.36167  -0.35907  -0.35809
 Alpha  occ. eigenvalues --   -0.35420  -0.35082  -0.34431  -0.34264  -0.33836
 Alpha  occ. eigenvalues --   -0.33328  -0.33200  -0.32559  -0.31775  -0.31442
 Alpha  occ. eigenvalues --   -0.31300  -0.30139  -0.28411  -0.22254  -0.22141
 Alpha  occ. eigenvalues --   -0.20138
 Alpha virt. eigenvalues --   -0.12614  -0.10231  -0.08119  -0.07499  -0.07220
 Alpha virt. eigenvalues --   -0.06933  -0.06328  -0.05927  -0.05616  -0.05214
 Alpha virt. eigenvalues --   -0.04580  -0.04453  -0.02719  -0.02473  -0.01872

 Mulliken charges:
               1
     1  N   -0.748941
     2  H    0.416796
     3  H    0.425638
     4  H    0.430680
     5  C   -0.123146
     6  H    0.215952
     7  C    0.645107
     8  C    0.127251
     9  H    0.171993
    10  O   -0.538075
    11  C   -0.486390
    12  H    0.191581
    13  H    0.183653
    14  H    0.185105
    15  O   -0.647750
    16  H    0.434721
    17  N   -0.606378
    18  H    0.376291
    19  C   -0.069904
    20  H    0.193807
    21  C    0.635037
    22  C   -0.349530
    23  H    0.177677
    24  H    0.162783
    25  O   -0.559314
    26  C    0.150906
    27  C   -0.188463
    28  H    0.131986
    29  C   -0.199691
    30  H    0.130777
    31  C   -0.134685
    32  H    0.173859
    33  C   -0.118059
    34  H    0.143696
    35  C   -0.127304
    36  H    0.151572
    37  N   -0.614598
    38  H    0.375182
    39  C   -0.032928
    40  H    0.177909
    41  C    0.623587
    42  C   -0.448484
    43  H    0.164987
    44  H    0.168413
    45  H    0.179606
    46  O   -0.535835
    47  N   -0.628456
    48  H    0.359004
    49  C   -0.039486
    50  H    0.170982
    51  C    0.630126
    52  C   -0.278862
    53  H    0.176997
    54  H    0.204992
    55  O   -0.552483
    56  C   -0.386231
    57  H    0.193295
    58  H    0.178437
    59  C    0.603173
    60  O   -0.464162
    61  O   -0.561595
    62  N   -0.599571
    63  H    0.341440
    64  C   -0.066168
    65  H    0.195777
    66  C    0.647755
    67  C   -0.468073
    68  H    0.178308
    69  H    0.166132
    70  H    0.159897
    71  O   -0.574937
    72  N   -0.602240
    73  H    0.373793
    74  C   -0.049892
    75  H    0.178238
    76  C    0.599580
    77  C   -0.331202
    78  H    0.138326
    79  H    0.219373
    80  O   -0.599211
    81  C   -0.080137
    82  H    0.111341
    83  C   -0.447385
    84  H    0.174715
    85  H    0.139154
    86  H    0.130845
    87  C   -0.471447
    88  H    0.179158
    89  H    0.143278
    90  H    0.134665
    91  N   -0.585832
    92  H    0.364073
    93  C   -0.087467
    94  H    0.146372
    95  C    0.583309
    96  C   -0.271132
    97  H    0.198624
    98  H    0.128226
    99  O   -0.610884
   100  C   -0.303113
   101  H    0.160235
   102  H    0.156789
   103  C   -0.156139
   104  H    0.156209
   105  H    0.164893
   106  N   -0.620103
   107  H    0.435225
   108  N   -0.760293
   109  H    0.360069
   110  H    0.373951
   111  N   -0.791828
   112  H    0.424989
   113  H    0.348025
   114  C    0.778986
   115  O   -0.558528
   116  H    0.421024
 Sum of Mulliken charges =   1.00000

 Dipole moment (field-independent basis, Debye):
    X=            -23.0617    Y=             -4.0938    Z=            -29.5819  Tot=             37.7318
 Quadrupole moment (field-independent basis, Debye-Ang):
   XX=           -184.2252   YY=            -64.9924   ZZ=           -196.9889
   XY=            270.1051   XZ=            112.2725   YZ=            216.7588

 Normal termination of Gaussian 16 at Thu Jun 30 14:49:11 2022.
