 Gaussian 16, Revision C.01,
 Gaussian 16:  ES64L-G16RevC.01  3-Jul-2019

 -------------------------------------------------------------------
 # B3LYP/6-31G* guess=read geom=check nosymm integral(ultrafinegrid)
 -------------------------------------------------------------------

 ------------------------------------------------------
 Candidate Structure: Conf:197 Charge calc in gas phase
 ------------------------------------------------------
 Structure from the checkpoint file:  "conf-197.chk"
 Charge =  1 Multiplicity = 1

                          Input orientation:
 ---------------------------------------------------------------------
 Center     Atomic      Atomic             Coordinates (Angstroms)
 Number     Number       Type             X           Y           Z
 ---------------------------------------------------------------------
      1          7           0       -8.866962   -2.224978   -8.583453
      2          1           0       -9.536985   -2.863658   -8.146702
      3          1           0       -9.052937   -1.255166   -8.228186
      4          1           0       -8.923742   -2.302259   -9.614543
      5          6           0       -7.439803   -2.486621   -8.183835
      6          1           0       -7.338294   -3.539750   -7.909594
      7          6           0       -7.198056   -1.517552   -7.001298
      8          6           0       -6.555749   -2.141518   -9.427566
      9          1           0       -6.509267   -1.048947   -9.504524
     10          8           0       -7.957509   -0.544679   -6.903898
     11          6           0       -5.151239   -2.722932   -9.339359
     12          1           0       -4.600978   -2.343368   -8.472724
     13          1           0       -4.590099   -2.448263  -10.237201
     14          1           0       -5.182309   -3.818388   -9.269735
     15          8           0       -7.260117   -2.567462  -10.596654
     16          1           0       -6.929430   -3.437228  -10.877073
     17          7           0       -6.167925   -1.797189   -6.209914
     18          1           0       -5.514887   -2.550616   -6.431629
     19          6           0       -5.619622   -0.880837   -5.209929
     20          1           0       -5.709195    0.138804   -5.604138
     21          6           0       -4.114644   -1.248295   -5.151437
     22          6           0       -6.381811   -0.928121   -3.858461
     23          1           0       -5.990392   -0.121595   -3.227275
     24          1           0       -7.419128   -0.653514   -4.082321
     25          8           0       -3.663243   -2.109485   -5.916857
     26          6           0       -6.329406   -2.242612   -3.107070
     27          6           0       -7.174024   -3.305624   -3.459592
     28          1           0       -7.885079   -3.178578   -4.273112
     29          6           0       -5.460543   -2.410355   -2.019644
     30          1           0       -4.810154   -1.596372   -1.709171
     31          6           0       -7.137915   -4.511672   -2.759749
     32          1           0       -7.805034   -5.322132   -3.041562
     33          6           0       -5.431532   -3.612253   -1.309663
     34          1           0       -4.771806   -3.705114   -0.452313
     35          6           0       -6.263795   -4.668390   -1.682190
     36          1           0       -6.245484   -5.601797   -1.126684
     37          7           0       -3.369049   -0.552947   -4.281398
     38          1           0       -3.797198   -0.008310   -3.536140
     39          6           0       -1.957314   -0.835606   -4.044005
     40          1           0       -1.786421   -1.898401   -4.247325
     41          6           0       -1.720848   -0.562958   -2.542335
     42          6           0       -1.048469    0.006930   -4.954914
     43          1           0        0.009270   -0.216570   -4.782606
     44          1           0       -1.206635    1.075762   -4.778318
     45          1           0       -1.275420   -0.214560   -6.001635
     46          8           0       -2.623184   -0.090707   -1.842704
     47          7           0       -0.500523   -0.894353   -2.080061
     48          1           0        0.257162   -1.111220   -2.724081
     49          6           0       -0.023962   -0.568018   -0.740970
     50          1           0       -0.623366    0.257017   -0.347053
     51          6           0        1.448857   -0.142688   -0.906983
     52          6           0       -0.120742   -1.771428    0.227043
     53          1           0        0.299891   -1.475913    1.193498
     54          1           0        0.500545   -2.586115   -0.163641
     55          8           0        2.060457   -0.391288   -1.949985
     56          6           0       -1.545390   -2.286218    0.437304
     57          1           0       -2.017773   -2.571986   -0.507975
     58          1           0       -1.524978   -3.196479    1.051191
     59          6           0       -2.436776   -1.287052    1.143529
     60          8           0       -2.072072   -0.261859    1.674572
     61          8           0       -3.730322   -1.693782    1.147269
     62          7           0        2.000214    0.468622    0.158763
     63          1           0        1.495026    0.587431    1.035230
     64          6           0        3.423871    0.747761    0.262487
     65          1           0        3.973696   -0.075559   -0.207449
     66          6           0        3.738990    0.792022    1.774686
     67          6           0        3.805694    2.061897   -0.442601
     68          1           0        4.885733    2.239529   -0.373491
     69          1           0        3.274165    2.905798    0.011427
     70          1           0        3.535597    2.000184   -1.500138
     71          8           0        2.823551    0.871584    2.596057
     72          7           0        5.048838    0.736719    2.086009
     73          1           0        5.748211    0.833137    1.356845
     74          6           0        5.590512    0.896953    3.431522
     75          1           0        4.824895    1.381102    4.044390
     76          6           0        6.824469    1.824531    3.321938
     77          6           0        5.996126   -0.455993    4.066144
     78          1           0        6.748920   -0.917217    3.411270
     79          1           0        6.499075   -0.247828    5.018936
     80          8           0        7.269488    2.108526    2.172730
     81          6           0        4.850486   -1.456362    4.314526
     82          1           0        4.314714   -1.608171    3.366270
     83          6           0        5.439543   -2.809819    4.743253
     84          1           0        5.992773   -2.716080    5.686190
     85          1           0        6.130481   -3.206775    3.989497
     86          1           0        4.646827   -3.551254    4.896842
     87          6           0        3.843630   -0.944933    5.356144
     88          1           0        4.343799   -0.717160    6.306124
     89          1           0        3.080695   -1.706311    5.557827
     90          1           0        3.323237   -0.046639    5.010960
     91          7           0        7.325706    2.213727    4.476193
     92          1           0        6.916092    1.935223    5.404880
     93          6           0        8.608493    2.822541    4.844831
     94          1           0        9.417224    2.126657    4.580421
     95          6           0        8.551882    2.884001    6.446841
     96          6           0        8.907591    4.197256    4.246269
     97          1           0        9.532118    4.707833    4.987797
     98          1           0        7.963990    4.755754    4.173860
     99          8           0        9.451149    3.547861    6.977767
    100          6           0        9.618253    4.137657    2.886361
    101          1           0        9.179946    3.349754    2.268577
    102          1           0       10.667294    3.849251    3.033035
    103          6           0        9.637506    5.460590    2.111178
    104          1           0        9.960979    5.303598    1.076062
    105          1           0       10.334319    6.166513    2.570566
    106          7           0        8.349856    6.197279    2.073737
    107          1           0        8.311360    7.056291    2.605159
    108          7           0        6.989655    4.577480    1.073785
    109          1           0        6.178454    4.421599    0.490275
    110          1           0        7.332607    3.722276    1.564344
    111          7           0        6.262682    6.769109    1.258297
    112          1           0        6.469998    7.746654    1.404206
    113          1           0        5.286715    6.509223    1.250963
    114          6           0        7.210001    5.823968    1.491096
    115          8           0        7.587934    2.230045    6.938140
    116          1           0       -4.232169   -1.012671    1.634210
 ---------------------------------------------------------------------

 SCF Done:  E(RB3LYP) =  -2782.25540022     A.U. after    2 cycles

 Alpha  occ. eigenvalues --  -19.30937 -19.26748 -19.25720 -19.22468 -19.20478
 Alpha  occ. eigenvalues --  -19.19984 -19.18768 -19.17636 -19.16878 -19.06896
 Alpha  occ. eigenvalues --  -19.05720 -14.59864 -14.49531 -14.48247 -14.47853
 Alpha  occ. eigenvalues --  -14.45950 -14.45614 -14.43848 -14.42411 -14.41338
 Alpha  occ. eigenvalues --  -14.37831 -10.43759 -10.43759 -10.40857 -10.40209
 Alpha  occ. eigenvalues --  -10.39449 -10.38175 -10.37422 -10.35757 -10.34990
 Alpha  occ. eigenvalues --  -10.34738 -10.33051 -10.32395 -10.31577 -10.30542
 Alpha  occ. eigenvalues --  -10.30394 -10.30108 -10.29267 -10.27665 -10.27576
 Alpha  occ. eigenvalues --  -10.26851 -10.26731 -10.26718 -10.26504 -10.26381
 Alpha  occ. eigenvalues --  -10.26122 -10.26045 -10.25891 -10.25593 -10.24740
 Alpha  occ. eigenvalues --  -10.23201 -10.22753 -10.22038 -10.21915 -10.21013
 Alpha  occ. eigenvalues --  -10.20055 -10.19341  -1.19642  -1.18040  -1.16446
 Alpha  occ. eigenvalues --   -1.14386  -1.13576  -1.12203  -1.12171  -1.10626
 Alpha  occ. eigenvalues --   -1.09387  -1.07498  -1.07287  -1.06231  -1.02310
 Alpha  occ. eigenvalues --   -1.01573  -1.00505  -1.00098  -0.99909  -0.99077
 Alpha  occ. eigenvalues --   -0.97842  -0.94779  -0.93851  -0.92967  -0.91268
 Alpha  occ. eigenvalues --   -0.89253  -0.87723  -0.85662  -0.85219  -0.85135
 Alpha  occ. eigenvalues --   -0.84701  -0.83339  -0.82235  -0.81728  -0.80052
 Alpha  occ. eigenvalues --   -0.79471  -0.78249  -0.77708  -0.76217  -0.74821
 Alpha  occ. eigenvalues --   -0.74620  -0.74423  -0.73071  -0.72583  -0.72127
 Alpha  occ. eigenvalues --   -0.70863  -0.70773  -0.70593  -0.69419  -0.68980
 Alpha  occ. eigenvalues --   -0.68090  -0.67954  -0.67141  -0.66854  -0.66116
 Alpha  occ. eigenvalues --   -0.65855  -0.65189  -0.64970  -0.64557  -0.64052
 Alpha  occ. eigenvalues --   -0.63281  -0.63264  -0.62058  -0.60788  -0.60482
 Alpha  occ. eigenvalues --   -0.60221  -0.59995  -0.58993  -0.58900  -0.58629
 Alpha  occ. eigenvalues --   -0.58530  -0.57809  -0.57207  -0.57079  -0.56359
 Alpha  occ. eigenvalues --   -0.55561  -0.55306  -0.54959  -0.54800  -0.54438
 Alpha  occ. eigenvalues --   -0.54326  -0.53906  -0.53692  -0.53553  -0.53386
 Alpha  occ. eigenvalues --   -0.53152  -0.52239  -0.52029  -0.51852  -0.51739
 Alpha  occ. eigenvalues --   -0.51288  -0.51076  -0.50924  -0.50583  -0.50395
 Alpha  occ. eigenvalues --   -0.50159  -0.49687  -0.49314  -0.49063  -0.48803
 Alpha  occ. eigenvalues --   -0.48707  -0.48230  -0.48180  -0.48011  -0.47844
 Alpha  occ. eigenvalues --   -0.47265  -0.47204  -0.47012  -0.46866  -0.46447
 Alpha  occ. eigenvalues --   -0.46292  -0.45816  -0.45614  -0.45353  -0.44665
 Alpha  occ. eigenvalues --   -0.44339  -0.44193  -0.44045  -0.43784  -0.43519
 Alpha  occ. eigenvalues --   -0.43286  -0.43160  -0.42970  -0.42656  -0.42220
 Alpha  occ. eigenvalues --   -0.41722  -0.41701  -0.41482  -0.41259  -0.40913
 Alpha  occ. eigenvalues --   -0.40840  -0.40697  -0.39316  -0.39305  -0.39126
 Alpha  occ. eigenvalues --   -0.38526  -0.37958  -0.37826  -0.37016  -0.36652
 Alpha  occ. eigenvalues --   -0.36271  -0.36042  -0.35722  -0.35523  -0.35296
 Alpha  occ. eigenvalues --   -0.35229  -0.34493  -0.34254  -0.34225  -0.33343
 Alpha  occ. eigenvalues --   -0.32880  -0.32359  -0.32311  -0.31995  -0.31681
 Alpha  occ. eigenvalues --   -0.30926  -0.30382  -0.28923  -0.21908  -0.21849
 Alpha  occ. eigenvalues --   -0.20111
 Alpha virt. eigenvalues --   -0.12882  -0.10655  -0.08934  -0.08264  -0.07939
 Alpha virt. eigenvalues --   -0.07377  -0.06239  -0.05859  -0.05108  -0.05052
 Alpha virt. eigenvalues --   -0.04883  -0.04535  -0.03155  -0.03102  -0.02332

 Mulliken charges:
               1
     1  N   -0.746343
     2  H    0.415036
     3  H    0.426884
     4  H    0.427294
     5  C   -0.141877
     6  H    0.204929
     7  C    0.641940
     8  C    0.129932
     9  H    0.193249
    10  O   -0.533709
    11  C   -0.515775
    12  H    0.210300
    13  H    0.206058
    14  H    0.165040
    15  O   -0.630608
    16  H    0.425315
    17  N   -0.592441
    18  H    0.375437
    19  C   -0.061074
    20  H    0.200697
    21  C    0.631080
    22  C   -0.386256
    23  H    0.172233
    24  H    0.184776
    25  O   -0.551978
    26  C    0.172407
    27  C   -0.177786
    28  H    0.093573
    29  C   -0.210652
    30  H    0.162895
    31  C   -0.125909
    32  H    0.133583
    33  C   -0.137623
    34  H    0.159549
    35  C   -0.126869
    36  H    0.146315
    37  N   -0.609926
    38  H    0.366237
    39  C   -0.059264
    40  H    0.197176
    41  C    0.620698
    42  C   -0.451724
    43  H    0.173229
    44  H    0.166477
    45  H    0.175231
    46  O   -0.544713
    47  N   -0.607559
    48  H    0.360375
    49  C   -0.078248
    50  H    0.209883
    51  C    0.617032
    52  C   -0.262020
    53  H    0.178786
    54  H    0.154208
    55  O   -0.549810
    56  C   -0.365423
    57  H    0.182036
    58  H    0.190873
    59  C    0.611080
    60  O   -0.463839
    61  O   -0.572780
    62  N   -0.614909
    63  H    0.371029
    64  C   -0.039849
    65  H    0.184145
    66  C    0.609744
    67  C   -0.456678
    68  H    0.140396
    69  H    0.150877
    70  H    0.188035
    71  O   -0.534795
    72  N   -0.598874
    73  H    0.344118
    74  C   -0.076867
    75  H    0.193513
    76  C    0.608761
    77  C   -0.259682
    78  H    0.132583
    79  H    0.175729
    80  O   -0.629875
    81  C   -0.066412
    82  H    0.118532
    83  C   -0.445327
    84  H    0.154679
    85  H    0.136327
    86  H    0.139962
    87  C   -0.463727
    88  H    0.154069
    89  H    0.136682
    90  H    0.168573
    91  N   -0.604869
    92  H    0.381512
    93  C   -0.066666
    94  H    0.153327
    95  C    0.587936
    96  C   -0.269243
    97  H    0.191644
    98  H    0.104331
    99  O   -0.571146
   100  C   -0.316231
   101  H    0.179287
   102  H    0.166142
   103  C   -0.152643
   104  H    0.181537
   105  H    0.177267
   106  N   -0.586578
   107  H    0.360709
   108  N   -0.782114
   109  H    0.354191
   110  H    0.457338
   111  N   -0.759585
   112  H    0.368170
   113  H    0.369932
   114  C    0.773047
   115  O   -0.612082
   116  H    0.416390
 Sum of Mulliken charges =   1.00000

 Dipole moment (field-independent basis, Debye):
    X=            -28.5405    Y=             -0.8454    Z=            -44.7206  Tot=             53.0585
 Quadrupole moment (field-independent basis, Debye-Ang):
   XX=           -103.9987   YY=           -183.7091   ZZ=           -182.1953
   XY=            162.1610   XZ=            138.0989   YZ=             66.8176

 Normal termination of Gaussian 16 at Thu Jun 30 14:49:27 2022.
