 Gaussian 16, Revision C.01,
 Gaussian 16:  ES64L-G16RevC.01  3-Jul-2019

 -------------------------------------------------------------------
 # B3LYP/6-31G* guess=read geom=check nosymm integral(ultrafinegrid)
 -------------------------------------------------------------------

 -----------------------------------------------------
 Candidate Structure: Conf:90 Charge calc in gas phase
 -----------------------------------------------------
 Structure from the checkpoint file:  "conf-90.chk"
 Charge =  1 Multiplicity = 1

                          Input orientation:
 ---------------------------------------------------------------------
 Center     Atomic      Atomic             Coordinates (Angstroms)
 Number     Number       Type             X           Y           Z
 ---------------------------------------------------------------------
      1          7           0       -6.135210    0.958376   -1.912535
      2          1           0       -5.594199    0.697440   -1.061999
      3          1           0       -5.906280    1.947814   -2.121941
      4          1           0       -7.147247    0.820984   -1.787066
      5          6           0       -5.679030    0.174178   -3.115835
      6          1           0       -5.543712   -0.862284   -2.798527
      7          6           0       -4.363582    0.879179   -3.504600
      8          6           0       -6.778975    0.271236   -4.186802
      9          1           0       -6.802840    1.308153   -4.554426
     10          8           0       -4.346667    2.106534   -3.403024
     11          6           0       -6.533629   -0.690484   -5.344508
     12          1           0       -5.584204   -0.473043   -5.845561
     13          1           0       -7.328221   -0.591460   -6.091372
     14          1           0       -6.524575   -1.726871   -4.990945
     15          8           0       -7.980942   -0.026687   -3.468705
     16          1           0       -8.744387    0.093131   -4.055475
     17          7           0       -3.319687    0.114760   -3.862076
     18          1           0       -3.396948   -0.895063   -3.923074
     19          6           0       -1.956844    0.626414   -3.758664
     20          1           0       -2.000432    1.702254   -3.936665
     21          6           0       -1.073109   -0.109209   -4.773567
     22          6           0       -1.373005    0.330043   -2.333405
     23          1           0       -1.139522   -0.740882   -2.301025
     24          1           0       -0.424304    0.872040   -2.249742
     25          8           0       -1.230835   -1.311238   -4.973015
     26          6           0       -2.283318    0.687285   -1.177375
     27          6           0       -2.231892    1.951743   -0.579114
     28          1           0       -1.522344    2.704835   -0.911337
     29          6           0       -3.184074   -0.262112   -0.664761
     30          1           0       -3.189680   -1.273570   -1.068461
     31          6           0       -3.055513    2.273340    0.501601
     32          1           0       -2.919304    3.238878    0.976344
     33          6           0       -4.032789    0.059462    0.404177
     34          1           0       -4.678591   -0.705973    0.831741
     35          6           0       -3.971310    1.336103    0.984616
     36          1           0       -4.595931    1.573256    1.841937
     37          7           0       -0.092774    0.651857   -5.313010
     38          1           0       -0.012165    1.626419   -5.036219
     39          6           0        1.147373    0.124191   -5.880411
     40          1           0        1.223770   -0.928252   -5.588712
     41          6           0        2.248158    0.971657   -5.209563
     42          6           0        1.196331    0.246226   -7.411225
     43          1           0        2.140232   -0.146392   -7.805176
     44          1           0        1.103027    1.293470   -7.714947
     45          1           0        0.372723   -0.323706   -7.849950
     46          8           0        1.994747    2.144509   -4.905588
     47          7           0        3.449092    0.410425   -4.949637
     48          1           0        3.613960   -0.551312   -5.219221
     49          6           0        4.381891    1.028999   -3.985465
     50          1           0        3.743966    1.584811   -3.285872
     51          6           0        5.344327    2.099973   -4.577822
     52          6           0        5.136306   -0.056480   -3.209387
     53          1           0        5.922717   -0.497333   -3.830925
     54          1           0        4.431780   -0.853917   -2.947683
     55          8           0        6.550201    2.070914   -4.339973
     56          6           0        5.756824    0.501208   -1.920120
     57          1           0        6.587826    1.169673   -2.170786
     58          1           0        5.030050    1.111507   -1.366225
     59          6           0        6.258277   -0.590294   -1.019350
     60          8           0        6.236174   -1.777958   -1.206945
     61          8           0        6.803931   -0.094968    0.171683
     62          7           0        4.713416    3.107421   -5.234046
     63          1           0        3.697281    3.042625   -5.262727
     64          6           0        5.273011    4.458782   -5.379425
     65          1           0        6.275373    4.419345   -4.938931
     66          6           0        4.389275    5.446268   -4.549382
     67          6           0        5.368500    4.902652   -6.837357
     68          1           0        5.745104    5.926602   -6.891252
     69          1           0        4.384561    4.887309   -7.317495
     70          1           0        6.040760    4.238131   -7.388068
     71          8           0        4.098245    6.560846   -4.965724
     72          7           0        3.985331    4.925553   -3.360852
     73          1           0        4.268975    3.980459   -3.131317
     74          6           0        2.857284    5.339072   -2.531841
     75          1           0        3.075468    6.297978   -2.047934
     76          6           0        2.765720    4.234212   -1.445350
     77          6           0        1.563358    5.466264   -3.384907
     78          1           0        1.842766    6.072364   -4.254065
     79          1           0        1.317382    4.464403   -3.760276
     80          8           0        3.417454    3.176694   -1.574817
     81          6           0        0.314737    6.102492   -2.738604
     82          1           0       -0.031358    5.485154   -1.900299
     83          6           0        0.578844    7.523812   -2.215612
     84          1           0        0.959979    8.174231   -3.013544
     85          1           0        1.308986    7.542203   -1.397444
     86          1           0       -0.344542    7.968182   -1.827987
     87          6           0       -0.820143    6.124680   -3.776178
     88          1           0       -0.555639    6.746552   -4.641442
     89          1           0       -1.740022    6.529333   -3.339237
     90          1           0       -1.042996    5.115909   -4.147250
     91          7           0        1.991376    4.479005   -0.379161
     92          1           0        1.275868    5.207345   -0.425652
     93          6           0        1.592617    3.451695    0.586676
     94          1           0        1.617430    2.479330    0.077331
     95          6           0        0.089883    3.710600    0.998645
     96          6           0        2.515967    3.380488    1.810539
     97          1           0        1.986841    2.782131    2.559860
     98          1           0        2.639496    4.391400    2.223752
     99          8           0       -0.327455    3.003977    1.933592
    100          6           0        3.883949    2.773548    1.477958
    101          1           0        4.351345    3.320846    0.654374
    102          1           0        3.735598    1.744934    1.117200
    103          6           0        4.857688    2.743754    2.656369
    104          1           0        4.454666    2.183250    3.507261
    105          1           0        5.072646    3.762770    2.993713
    106          7           0        6.123428    2.112925    2.219844
    107          1           0        6.025419    1.325968    1.580337
    108          7           0        7.658835    3.561845    3.218319
    109          1           0        8.480891    4.134962    3.093836
    110          1           0        6.974283    3.876474    3.889461
    111          7           0        8.325133    2.138718    1.517079
    112          1           0        8.088735    1.461445    0.797445
    113          1           0        9.296484    2.241374    1.773430
    114          6           0        7.351781    2.606676    2.320910
    115          8           0       -0.519932    4.563329    0.291106
    116          1           0        7.085475   -0.897412    0.655529
 ---------------------------------------------------------------------

 SCF Done:  E(RB3LYP) =  -2782.25528136     A.U. after    2 cycles

 Alpha  occ. eigenvalues --  -19.30903 -19.28041 -19.24301 -19.23761 -19.21407
 Alpha  occ. eigenvalues --  -19.20262 -19.17984 -19.17409 -19.15294 -19.09692
 Alpha  occ. eigenvalues --  -19.08879 -14.56430 -14.50999 -14.50235 -14.50208
 Alpha  occ. eigenvalues --  -14.47644 -14.45853 -14.44420 -14.41073 -14.39677
 Alpha  occ. eigenvalues --  -14.39111 -10.46943 -10.42088 -10.41260 -10.38248
 Alpha  occ. eigenvalues --  -10.38060 -10.37543 -10.37530 -10.34990 -10.33863
 Alpha  occ. eigenvalues --  -10.33457 -10.32957 -10.32562 -10.32463 -10.31009
 Alpha  occ. eigenvalues --  -10.29294 -10.28403 -10.27945 -10.27938 -10.27890
 Alpha  occ. eigenvalues --  -10.27666 -10.27426 -10.27200 -10.27076 -10.27009
 Alpha  occ. eigenvalues --  -10.26292 -10.26259 -10.26168 -10.24987 -10.24964
 Alpha  occ. eigenvalues --  -10.24833 -10.23412 -10.22053 -10.21971 -10.21842
 Alpha  occ. eigenvalues --  -10.20902 -10.20552  -1.20530  -1.16799  -1.15377
 Alpha  occ. eigenvalues --   -1.15266  -1.13536  -1.12039  -1.11812  -1.10505
 Alpha  occ. eigenvalues --   -1.09572  -1.08709  -1.06907  -1.04507  -1.04070
 Alpha  occ. eigenvalues --   -1.03561  -1.02691  -1.01686  -1.01057  -0.98336
 Alpha  occ. eigenvalues --   -0.96337  -0.95633  -0.93826  -0.92907  -0.91190
 Alpha  occ. eigenvalues --   -0.88968  -0.87946  -0.87739  -0.85387  -0.84457
 Alpha  occ. eigenvalues --   -0.83382  -0.82554  -0.81421  -0.81332  -0.80948
 Alpha  occ. eigenvalues --   -0.80316  -0.78356  -0.77104  -0.75695  -0.74820
 Alpha  occ. eigenvalues --   -0.73737  -0.73526  -0.72477  -0.72302  -0.71542
 Alpha  occ. eigenvalues --   -0.71412  -0.70625  -0.70070  -0.69412  -0.68969
 Alpha  occ. eigenvalues --   -0.68528  -0.67690  -0.67304  -0.67129  -0.66041
 Alpha  occ. eigenvalues --   -0.65884  -0.65623  -0.64583  -0.64037  -0.63976
 Alpha  occ. eigenvalues --   -0.63622  -0.63081  -0.62611  -0.61751  -0.61123
 Alpha  occ. eigenvalues --   -0.60566  -0.59692  -0.59390  -0.58981  -0.58617
 Alpha  occ. eigenvalues --   -0.58441  -0.58185  -0.57728  -0.57299  -0.56815
 Alpha  occ. eigenvalues --   -0.56728  -0.56159  -0.55951  -0.55599  -0.54766
 Alpha  occ. eigenvalues --   -0.54602  -0.54276  -0.53891  -0.53542  -0.52768
 Alpha  occ. eigenvalues --   -0.52625  -0.52505  -0.52059  -0.51680  -0.51407
 Alpha  occ. eigenvalues --   -0.51120  -0.50881  -0.50595  -0.50373  -0.50085
 Alpha  occ. eigenvalues --   -0.49981  -0.49574  -0.49211  -0.49059  -0.48964
 Alpha  occ. eigenvalues --   -0.48550  -0.48410  -0.47840  -0.47621  -0.47259
 Alpha  occ. eigenvalues --   -0.47113  -0.46683  -0.46623  -0.46083  -0.45946
 Alpha  occ. eigenvalues --   -0.45739  -0.45628  -0.45405  -0.45263  -0.45138
 Alpha  occ. eigenvalues --   -0.44945  -0.44644  -0.44540  -0.43996  -0.43714
 Alpha  occ. eigenvalues --   -0.43104  -0.42817  -0.42607  -0.42544  -0.41928
 Alpha  occ. eigenvalues --   -0.41727  -0.41485  -0.41468  -0.41318  -0.41092
 Alpha  occ. eigenvalues --   -0.40917  -0.40679  -0.40464  -0.40278  -0.40057
 Alpha  occ. eigenvalues --   -0.39700  -0.39268  -0.39175  -0.38516  -0.38424
 Alpha  occ. eigenvalues --   -0.37697  -0.37015  -0.36926  -0.36524  -0.36437
 Alpha  occ. eigenvalues --   -0.35987  -0.35514  -0.35379  -0.34257  -0.33813
 Alpha  occ. eigenvalues --   -0.32568  -0.32043  -0.31835  -0.31440  -0.30908
 Alpha  occ. eigenvalues --   -0.30617  -0.28733  -0.28089  -0.25002  -0.24336
 Alpha  occ. eigenvalues --   -0.23149
 Alpha virt. eigenvalues --   -0.11189  -0.10933  -0.09026  -0.08637  -0.08154
 Alpha virt. eigenvalues --   -0.07430  -0.06636  -0.05697  -0.05380  -0.05009
 Alpha virt. eigenvalues --   -0.03940  -0.03351  -0.03244  -0.02881  -0.02656

 Mulliken charges:
               1
     1  N   -0.753032
     2  H    0.412398
     3  H    0.419416
     4  H    0.418881
     5  C   -0.114463
     6  H    0.198777
     7  C    0.654464
     8  C    0.131941
     9  H    0.170353
    10  O   -0.521607
    11  C   -0.479757
    12  H    0.182314
    13  H    0.180588
    14  H    0.177473
    15  O   -0.648097
    16  H    0.427737
    17  N   -0.592901
    18  H    0.353756
    19  C   -0.076640
    20  H    0.202444
    21  C    0.621526
    22  C   -0.371380
    23  H    0.170995
    24  H    0.181612
    25  O   -0.533561
    26  C    0.173044
    27  C   -0.167896
    28  H    0.181039
    29  C   -0.213289
    30  H    0.123935
    31  C   -0.102702
    32  H    0.200582
    33  C   -0.219601
    34  H    0.143555
    35  C   -0.144696
    36  H    0.151029
    37  N   -0.599549
    38  H    0.364416
    39  C   -0.055283
    40  H    0.178908
    41  C    0.624003
    42  C   -0.442261
    43  H    0.160811
    44  H    0.175229
    45  H    0.184074
    46  O   -0.542882
    47  N   -0.609699
    48  H    0.344388
    49  C   -0.091851
    50  H    0.231013
    51  C    0.599493
    52  C   -0.285863
    53  H    0.180819
    54  H    0.157431
    55  O   -0.523643
    56  C   -0.402230
    57  H    0.224513
    58  H    0.216447
    59  C    0.598512
    60  O   -0.424110
    61  O   -0.631849
    62  N   -0.615136
    63  H    0.376837
    64  C   -0.066801
    65  H    0.190529
    66  C    0.593574
    67  C   -0.429327
    68  H    0.177824
    69  H    0.149745
    70  H    0.150884
    71  O   -0.519125
    72  N   -0.637847
    73  H    0.358405
    74  C   -0.028249
    75  H    0.171552
    76  C    0.596330
    77  C   -0.288790
    78  H    0.178744
    79  H    0.140558
    80  O   -0.587091
    81  C   -0.116773
    82  H    0.175568
    83  C   -0.450221
    84  H    0.149821
    85  H    0.133437
    86  H    0.152076
    87  C   -0.440411
    88  H    0.142906
    89  H    0.147178
    90  H    0.118358
    91  N   -0.598249
    92  H    0.371239
    93  C   -0.066485
    94  H    0.139216
    95  C    0.591338
    96  C   -0.260204
    97  H    0.178017
    98  H    0.133134
    99  O   -0.590280
   100  C   -0.286106
   101  H    0.174982
   102  H    0.139186
   103  C   -0.158896
   104  H    0.190927
   105  H    0.161237
   106  N   -0.606440
   107  H    0.382831
   108  N   -0.751901
   109  H    0.381057
   110  H    0.386659
   111  N   -0.777761
   112  H    0.398901
   113  H    0.372927
   114  C    0.797249
   115  O   -0.617978
   116  H    0.421775
 Sum of Mulliken charges =   1.00000

 Dipole moment (field-independent basis, Debye):
    X=              4.4278    Y=             -0.5284    Z=             -3.6345  Tot=              5.7527
 Quadrupole moment (field-independent basis, Debye-Ang):
   XX=              1.1231   YY=           -364.1311   ZZ=           -266.1405
   XY=             47.4320   XZ=            137.9878   YZ=             41.5256

 Normal termination of Gaussian 16 at Thu Jun 30 14:49:59 2022.
