 Gaussian 16, Revision C.01,
 Gaussian 16:  ES64L-G16RevC.01  3-Jul-2019

 -------------------------------------------------------------------
 # B3LYP/6-31G* guess=read geom=check nosymm integral(ultrafinegrid)
 -------------------------------------------------------------------

 ------------------------------------------------------
 Candidate Structure: Conf:472 Charge calc in gas phase
 ------------------------------------------------------
 Structure from the checkpoint file:  "conf-472.chk"
 Charge =  1 Multiplicity = 1

                          Input orientation:
 ---------------------------------------------------------------------
 Center     Atomic      Atomic             Coordinates (Angstroms)
 Number     Number       Type             X           Y           Z
 ---------------------------------------------------------------------
      1          7           0       -7.917291   -0.746076   -8.666104
      2          1           0       -7.716727   -1.752227   -8.539702
      3          1           0       -8.473528   -0.448940   -7.840214
      4          1           0       -8.404703   -0.553043   -9.552646
      5          6           0       -6.661587    0.087774   -8.606591
      6          1           0       -5.891013   -0.432878   -9.179409
      7          6           0       -6.368150    0.149770   -7.092670
      8          6           0       -6.978078    1.451996   -9.244712
      9          1           0       -7.661202    1.992264   -8.571785
     10          8           0       -7.346346    0.215764   -6.342358
     11          6           0       -5.716710    2.274549   -9.484295
     12          1           0       -5.191929    2.479720   -8.545064
     13          1           0       -5.976589    3.239995   -9.930731
     14          1           0       -5.038633    1.753109  -10.167867
     15          8           0       -7.652462    1.107805  -10.459693
     16          1           0       -7.948298    1.916866  -10.906532
     17          7           0       -5.092969    0.047809   -6.713995
     18          1           0       -4.310267    0.107290   -7.363539
     19          6           0       -4.686708   -0.237224   -5.344443
     20          1           0       -5.410188    0.219372   -4.665424
     21          6           0       -3.277467    0.370380   -5.193850
     22          6           0       -4.609437   -1.785439   -5.102863
     23          1           0       -3.680538   -2.146997   -5.558429
     24          1           0       -4.522230   -1.952068   -4.023575
     25          8           0       -2.590835    0.548362   -6.204401
     26          6           0       -5.779993   -2.558537   -5.674826
     27          6           0       -6.982994   -2.698057   -4.968090
     28          1           0       -7.069195   -2.278008   -3.969254
     29          6           0       -5.692992   -3.121259   -6.956965
     30          1           0       -4.754319   -3.061955   -7.503723
     31          6           0       -8.073820   -3.362163   -5.529485
     32          1           0       -8.992573   -3.465842   -4.959534
     33          6           0       -6.783617   -3.790292   -7.528686
     34          1           0       -6.676736   -4.267224   -8.500801
     35          6           0       -7.982364   -3.906757   -6.814328
     36          1           0       -8.822652   -4.449519   -7.239101
     37          7           0       -2.880844    0.611824   -3.937825
     38          1           0       -3.459377    0.388808   -3.127920
     39          6           0       -1.522594    0.993899   -3.568441
     40          1           0       -0.820540    0.420132   -4.184492
     41          6           0       -1.383056    0.577053   -2.086948
     42          6           0       -1.264455    2.495651   -3.774780
     43          1           0       -0.236635    2.754227   -3.500867
     44          1           0       -1.947124    3.091020   -3.159902
     45          1           0       -1.415797    2.751648   -4.826908
     46          8           0       -2.385945    0.287963   -1.426049
     47          7           0       -0.132814    0.571453   -1.599203
     48          1           0        0.679572    0.804397   -2.165751
     49          6           0        0.199386    0.203007   -0.228427
     50          1           0       -0.509699    0.692841    0.449095
     51          6           0        1.628393    0.738493   -0.004490
     52          6           0        0.112743   -1.334014   -0.043673
     53          1           0        0.916770   -1.806452   -0.619431
     54          1           0       -0.829940   -1.658576   -0.491850
     55          8           0        2.367033    0.956990   -0.968045
     56          6           0        0.146610   -1.817103    1.409071
     57          1           0        1.089900   -1.597508    1.920892
     58          1           0       -0.634712   -1.325388    2.006281
     59          6           0       -0.095469   -3.310531    1.500861
     60          8           0       -0.391247   -4.038793    0.578462
     61          8           0        0.050869   -3.757164    2.769920
     62          7           0        1.993573    0.916934    1.280037
     63          1           0        1.393486    0.612889    2.043756
     64          6           0        3.375272    1.112688    1.700064
     65          1           0        4.027163    0.685059    0.931239
     66          6           0        3.522435    0.317753    3.018366
     67          6           0        3.720650    2.599808    1.883928
     68          1           0        4.761038    2.722718    2.204095
     69          1           0        3.070526    3.054566    2.638881
     70          1           0        3.583241    3.127689    0.935677
     71          8           0        2.511852   -0.058155    3.624408
     72          7           0        4.783160    0.079519    3.412623
     73          1           0        5.569161    0.553134    2.969510
     74          6           0        5.157337   -0.518912    4.690145
     75          1           0        4.345048   -0.350387    5.402871
     76          6           0        6.433554    0.228225    5.147326
     77          6           0        5.461191   -2.032303    4.570569
     78          1           0        6.292761   -2.143410    3.860729
     79          1           0        5.835390   -2.380590    5.542483
     80          8           0        7.072051    0.917284    4.331883
     81          6           0        4.290995   -2.932934    4.128843
     82          1           0        3.879615   -2.522936    3.195636
     83          6           0        4.815435   -4.346066    3.827945
     84          1           0        5.252863   -4.802066    4.725275
     85          1           0        5.589039   -4.332913    3.050448
     86          1           0        4.005185   -5.000706    3.485335
     87          6           0        3.158458   -2.981807    5.164718
     88          1           0        3.517782   -3.386508    6.119856
     89          1           0        2.343844   -3.624406    4.810072
     90          1           0        2.730960   -1.991082    5.341791
     91          7           0        6.769932    0.036103    6.424332
     92          1           0        6.285143   -0.628301    7.050389
     93          6           0        8.054345    0.343769    7.035918
     94          1           0        8.861245   -0.058550    6.406695
     95          6           0        8.061501   -0.425341    8.432451
     96          6           0        8.279564    1.855549    7.206055
     97          1           0        7.594948    2.233060    7.979034
     98          1           0        8.007156    2.340600    6.253684
     99          8           0        9.027353   -0.170257    9.183679
    100          6           0        9.733010    2.154501    7.602742
    101          1           0       10.411179    1.948213    6.763413
    102          1           0        9.975794    1.457376    8.415888
    103          6           0        9.947380    3.580790    8.091085
    104          1           0       11.005105    3.768767    8.310667
    105          1           0        9.355009    3.763169    8.997214
    106          7           0        9.520874    4.542962    7.043868
    107          1           0        8.906948    4.155348    6.334163
    108          7           0       10.369988    6.449113    8.055466
    109          1           0       10.870815    7.316539    7.927002
    110          1           0       10.551732    5.933261    8.904538
    111          7           0        9.521874    6.572054    5.905322
    112          1           0        9.129281    6.125775    5.088095
    113          1           0        9.362065    7.565704    5.994543
    114          6           0        9.793866    5.833866    7.006237
    115          8           0        7.080545   -1.190263    8.601887
    116          1           0       -0.125052   -4.716778    2.747056
 ---------------------------------------------------------------------

 SCF Done:  E(RB3LYP) =  -2782.24800145     A.U. after    2 cycles

 Alpha  occ. eigenvalues --  -19.29280 -19.25048 -19.23469 -19.20763 -19.18730
 Alpha  occ. eigenvalues --  -19.17996 -19.17325 -19.16012 -19.13456 -19.05900
 Alpha  occ. eigenvalues --  -19.05298 -14.58358 -14.49871 -14.49800 -14.49093
 Alpha  occ. eigenvalues --  -14.48593 -14.44379 -14.42389 -14.40989 -14.39394
 Alpha  occ. eigenvalues --  -14.35555 -10.45823 -10.42474 -10.39452 -10.38802
 Alpha  occ. eigenvalues --  -10.37996 -10.36230 -10.35781 -10.34400 -10.34186
 Alpha  occ. eigenvalues --  -10.32987 -10.31111 -10.31107 -10.30311 -10.30155
 Alpha  occ. eigenvalues --  -10.29962 -10.29654 -10.29653 -10.29451 -10.29444
 Alpha  occ. eigenvalues --  -10.29402 -10.28949 -10.28880 -10.28260 -10.25555
 Alpha  occ. eigenvalues --  -10.25319 -10.24670 -10.24311 -10.24201 -10.23227
 Alpha  occ. eigenvalues --  -10.22271 -10.21801 -10.21548 -10.20673 -10.20585
 Alpha  occ. eigenvalues --  -10.19092 -10.18154  -1.18135  -1.16480  -1.14406
 Alpha  occ. eigenvalues --   -1.14385  -1.12826  -1.12116  -1.10635  -1.09193
 Alpha  occ. eigenvalues --   -1.07640  -1.05429  -1.05128  -1.04722  -1.03280
 Alpha  occ. eigenvalues --   -1.02791  -1.00998  -0.99188  -0.99006  -0.97643
 Alpha  occ. eigenvalues --   -0.95917  -0.95781  -0.92765  -0.92580  -0.90333
 Alpha  occ. eigenvalues --   -0.89254  -0.86354  -0.85616  -0.85281  -0.84543
 Alpha  occ. eigenvalues --   -0.84172  -0.83224  -0.82398  -0.81632  -0.79005
 Alpha  occ. eigenvalues --   -0.78280  -0.77479  -0.76845  -0.75816  -0.75621
 Alpha  occ. eigenvalues --   -0.73364  -0.72994  -0.72063  -0.71319  -0.71115
 Alpha  occ. eigenvalues --   -0.70575  -0.70231  -0.70138  -0.69772  -0.69488
 Alpha  occ. eigenvalues --   -0.68433  -0.68231  -0.67431  -0.66193  -0.65934
 Alpha  occ. eigenvalues --   -0.64777  -0.64399  -0.63693  -0.63035  -0.62985
 Alpha  occ. eigenvalues --   -0.62753  -0.62626  -0.62556  -0.61296  -0.61148
 Alpha  occ. eigenvalues --   -0.60469  -0.59102  -0.58535  -0.58239  -0.58175
 Alpha  occ. eigenvalues --   -0.57586  -0.57394  -0.56327  -0.55933  -0.55726
 Alpha  occ. eigenvalues --   -0.55324  -0.54885  -0.54424  -0.54273  -0.54032
 Alpha  occ. eigenvalues --   -0.53841  -0.52913  -0.52513  -0.52281  -0.52019
 Alpha  occ. eigenvalues --   -0.51974  -0.51905  -0.51658  -0.51531  -0.51235
 Alpha  occ. eigenvalues --   -0.50727  -0.50645  -0.50306  -0.50094  -0.49754
 Alpha  occ. eigenvalues --   -0.49368  -0.48977  -0.48756  -0.48190  -0.48075
 Alpha  occ. eigenvalues --   -0.47943  -0.47235  -0.47216  -0.47140  -0.46723
 Alpha  occ. eigenvalues --   -0.46383  -0.46187  -0.46119  -0.45468  -0.45235
 Alpha  occ. eigenvalues --   -0.45090  -0.44832  -0.44285  -0.44182  -0.44019
 Alpha  occ. eigenvalues --   -0.43863  -0.43650  -0.43527  -0.42861  -0.42608
 Alpha  occ. eigenvalues --   -0.41904  -0.41835  -0.41688  -0.41595  -0.41190
 Alpha  occ. eigenvalues --   -0.41110  -0.40547  -0.39914  -0.39801  -0.39750
 Alpha  occ. eigenvalues --   -0.39624  -0.39437  -0.39208  -0.38877  -0.38353
 Alpha  occ. eigenvalues --   -0.38024  -0.37696  -0.36928  -0.36754  -0.35773
 Alpha  occ. eigenvalues --   -0.35419  -0.35404  -0.35222  -0.34490  -0.34436
 Alpha  occ. eigenvalues --   -0.34181  -0.34142  -0.33955  -0.33510  -0.33000
 Alpha  occ. eigenvalues --   -0.32194  -0.31675  -0.31412  -0.30842  -0.29888
 Alpha  occ. eigenvalues --   -0.29144  -0.27368  -0.26408  -0.21211  -0.20784
 Alpha  occ. eigenvalues --   -0.19582
 Alpha virt. eigenvalues --   -0.12384  -0.11062  -0.10690  -0.10055  -0.07193
 Alpha virt. eigenvalues --   -0.06460  -0.06059  -0.04766  -0.04530  -0.03765
 Alpha virt. eigenvalues --   -0.03055  -0.02911  -0.02077  -0.01589  -0.01575

 Mulliken charges:
               1
     1  N   -0.748732
     2  H    0.410213
     3  H    0.418804
     4  H    0.423489
     5  C   -0.120145
     6  H    0.206181
     7  C    0.656779
     8  C    0.132520
     9  H    0.170600
    10  O   -0.532989
    11  C   -0.481612
    12  H    0.185062
    13  H    0.183136
    14  H    0.181430
    15  O   -0.649380
    16  H    0.430300
    17  N   -0.602520
    18  H    0.364035
    19  C   -0.066083
    20  H    0.197919
    21  C    0.634099
    22  C   -0.370166
    23  H    0.179401
    24  H    0.187983
    25  O   -0.548616
    26  C    0.171562
    27  C   -0.149935
    28  H    0.155324
    29  C   -0.199143
    30  H    0.144778
    31  C   -0.129718
    32  H    0.162015
    33  C   -0.198042
    34  H    0.156043
    35  C   -0.150525
    36  H    0.157937
    37  N   -0.615565
    38  H    0.363100
    39  C   -0.046599
    40  H    0.184280
    41  C    0.628458
    42  C   -0.448409
    43  H    0.167275
    44  H    0.164490
    45  H    0.180435
    46  O   -0.550747
    47  N   -0.626183
    48  H    0.359936
    49  C   -0.046088
    50  H    0.173597
    51  C    0.608432
    52  C   -0.259623
    53  H    0.163919
    54  H    0.186332
    55  O   -0.544581
    56  C   -0.390991
    57  H    0.206781
    58  H    0.183592
    59  C    0.583279
    60  O   -0.464126
    61  O   -0.558760
    62  N   -0.607948
    63  H    0.361559
    64  C   -0.056366
    65  H    0.184601
    66  C    0.621205
    67  C   -0.446409
    68  H    0.157728
    69  H    0.159471
    70  H    0.172360
    71  O   -0.548819
    72  N   -0.601039
    73  H    0.350799
    74  C   -0.072371
    75  H    0.181220
    76  C    0.612203
    77  C   -0.258466
    78  H    0.134524
    79  H    0.166338
    80  O   -0.590441
    81  C   -0.065513
    82  H    0.120145
    83  C   -0.443633
    84  H    0.149916
    85  H    0.136225
    86  H    0.134187
    87  C   -0.459435
    88  H    0.142632
    89  H    0.136756
    90  H    0.168702
    91  N   -0.621492
    92  H    0.364451
    93  C   -0.054614
    94  H    0.144233
    95  C    0.583950
    96  C   -0.285897
    97  H    0.140742
    98  H    0.125592
    99  O   -0.587888
   100  C   -0.321148
   101  H    0.141169
   102  H    0.248317
   103  C   -0.168656
   104  H    0.170654
   105  H    0.189361
   106  N   -0.588007
   107  H    0.370446
   108  N   -0.754840
   109  H    0.378690
   110  H    0.394550
   111  N   -0.760700
   112  H    0.381202
   113  H    0.375949
   114  C    0.809743
   115  O   -0.593609
   116  H    0.413431
 Sum of Mulliken charges =   1.00000

 Dipole moment (field-independent basis, Debye):
    X=            -14.3222    Y=             22.8040    Z=            -30.5585  Tot=             40.7304
 Quadrupole moment (field-independent basis, Debye-Ang):
   XX=             49.7375   YY=           -172.3169   ZZ=            -64.7559
   XY=            243.4055   XZ=            316.2039   YZ=            172.5309

 Normal termination of Gaussian 16 at Thu Jun 30 14:51:32 2022.
