 Gaussian 16, Revision C.01,
 Gaussian 16:  ES64L-G16RevC.01  3-Jul-2019

 -------------------------------------------------------------------
 # B3LYP/6-31G* guess=read geom=check nosymm integral(ultrafinegrid)
 -------------------------------------------------------------------

 ------------------------------------------------------
 Candidate Structure: Conf:123 Charge calc in gas phase
 ------------------------------------------------------
 Structure from the checkpoint file:  "conf-123.chk"
 Charge =  1 Multiplicity = 1

                          Input orientation:
 ---------------------------------------------------------------------
 Center     Atomic      Atomic             Coordinates (Angstroms)
 Number     Number       Type             X           Y           Z
 ---------------------------------------------------------------------
      1          7           0       -8.477953   -5.711422   -5.426387
      2          1           0       -8.656886   -5.992672   -4.448460
      3          1           0       -8.866716   -4.753665   -5.536080
      4          1           0       -8.883314   -6.372428   -6.106825
      5          6           0       -7.006655   -5.567203   -5.717091
      6          1           0       -6.488638   -6.405458   -5.243874
      7          6           0       -6.665005   -4.202927   -5.084184
      8          6           0       -6.851031   -5.610910   -7.259129
      9          1           0       -7.278836   -4.684161   -7.659241
     10          8           0       -7.528286   -3.324256   -5.164372
     11          6           0       -5.397175   -5.742804   -7.690604
     12          1           0       -4.796255   -4.905971   -7.320408
     13          1           0       -5.333827   -5.745925   -8.782296
     14          1           0       -4.953616   -6.673030   -7.311894
     15          8           0       -7.685018   -6.662906   -7.750957
     16          1           0       -7.148300   -7.458930   -7.898698
     17          7           0       -5.497305   -4.100362   -4.445604
     18          1           0       -4.770684   -4.812932   -4.490563
     19          6           0       -5.173770   -3.004149   -3.542289
     20          1           0       -5.659107   -2.097179   -3.909537
     21          6           0       -3.635631   -2.896578   -3.559959
     22          6           0       -5.651793   -3.330364   -2.083900
     23          1           0       -4.927192   -4.025406   -1.644643
     24          1           0       -5.602022   -2.404316   -1.500561
     25          8           0       -2.971524   -3.891878   -3.864515
     26          6           0       -7.036519   -3.940551   -2.009609
     27          6           0       -8.190728   -3.144388   -2.006844
     28          1           0       -8.094858   -2.061674   -2.018014
     29          6           0       -7.190196   -5.334686   -1.984467
     30          1           0       -6.307149   -5.968763   -1.942318
     31          6           0       -9.461307   -3.720210   -1.997989
     32          1           0      -10.341123   -3.083448   -1.987191
     33          6           0       -8.462540   -5.921750   -1.975528
     34          1           0       -8.559163   -7.002840   -1.899634
     35          6           0       -9.604406   -5.111385   -1.987956
     36          1           0      -10.594148   -5.558741   -1.951006
     37          7           0       -3.124766   -1.717767   -3.180886
     38          1           0       -3.706527   -0.929562   -2.900421
     39          6           0       -1.699776   -1.476281   -2.983670
     40          1           0       -1.269326   -2.342337   -2.467851
     41          6           0       -1.619921   -0.230543   -2.075524
     42          6           0       -0.958095   -1.262492   -4.314477
     43          1           0        0.110241   -1.099234   -4.141253
     44          1           0       -1.360850   -0.392564   -4.843286
     45          1           0       -1.073845   -2.149049   -4.943379
     46          8           0       -2.615294    0.486646   -1.915564
     47          7           0       -0.423157   -0.001235   -1.517966
     48          1           0        0.376520   -0.614476   -1.670162
     49          6           0       -0.102066    1.160322   -0.700391
     50          1           0       -0.413834    2.065726   -1.232563
     51          6           0        1.435245    1.154261   -0.574417
     52          6           0       -0.769628    1.130088    0.712478
     53          1           0       -0.013290    1.313485    1.482555
     54          1           0       -1.145856    0.116932    0.881967
     55          8           0        2.092109    0.165872   -0.905728
     56          6           0       -1.928966    2.117420    0.871927
     57          1           0       -2.653198    1.994983    0.057056
     58          1           0       -2.476472    1.926049    1.802815
     59          6           0       -1.490683    3.562607    0.894787
     60          8           0       -0.362836    3.979631    0.688400
     61          8           0       -2.513088    4.395174    1.166556
     62          7           0        1.973206    2.288112   -0.069339
     63          1           0        1.316865    2.965276    0.318365
     64          6           0        3.318081    2.261619    0.485537
     65          1           0        3.981010    1.825088   -0.267960
     66          6           0        3.331035    1.369302    1.754552
     67          6           0        3.767178    3.687336    0.824586
     68          1           0        4.787862    3.676891    1.222372
     69          1           0        3.110689    4.125424    1.584727
     70          1           0        3.746910    4.322375   -0.066529
     71          8           0        2.331616    1.273539    2.465285
     72          7           0        4.507192    0.753246    2.003157
     73          1           0        5.315942    0.926491    1.418198
     74          6           0        4.762401   -0.111701    3.146357
     75          1           0        4.015540    0.122684    3.908865
     76          6           0        6.174934    0.202110    3.681694
     77          6           0        4.686865   -1.613944    2.769674
     78          1           0        5.463682   -1.804628    2.015507
     79          1           0        4.965198   -2.196301    3.657697
     80          8           0        6.991968    0.791614    2.919219
     81          6           0        3.329575   -2.117321    2.240957
     82          1           0        3.036416   -1.489252    1.388293
     83          6           0        3.487429   -3.557887    1.727862
     84          1           0        3.787207   -4.234966    2.538103
     85          1           0        4.246679   -3.624080    0.939121
     86          1           0        2.542573   -3.932546    1.316084
     87          6           0        2.223180   -2.036248    3.303869
     88          1           0        2.497778   -2.603753    4.202564
     89          1           0        1.288579   -2.461869    2.917433
     90          1           0        2.017281   -1.001772    3.593490
     91          7           0        6.409111   -0.239356    4.902224
     92          1           0        5.675848   -0.706900    5.489785
     93          6           0        7.639072   -0.413340    5.680673
     94          1           0        8.240798   -1.205848    5.212520
     95          6           0        7.127053   -0.996014    7.085503
     96          6           0        8.507875    0.829236    5.875177
     97          1           0        8.988095    0.695857    6.851282
     98          1           0        7.851260    1.707114    5.949958
     99          8           0        7.978854   -1.018785    7.984251
    100          6           0        9.562056    1.022182    4.777107
    101          1           0        9.115424    0.856535    3.793310
    102          1           0       10.342485    0.257081    4.881967
    103          6           0       10.279597    2.376383    4.807431
    104          1           0       10.858705    2.533447    3.890396
    105          1           0       10.975728    2.422413    5.648996
    106          7           0        9.406058    3.561055    4.997429
    107          1           0        9.504677    4.053632    5.874524
    108          7           0        7.963383    3.299388    3.175122
    109          1           0        7.399526    3.783707    2.489686
    110          1           0        7.794625    2.267958    3.218324
    111          7           0        8.049897    5.308808    4.325307
    112          1           0        8.541320    5.937125    4.944432
    113          1           0        7.108987    5.567745    4.065734
    114          6           0        8.465683    4.025043    4.173102
    115          8           0        5.918484   -1.361710    7.064934
    116          1           0       -2.151113    5.301864    1.155598
 ---------------------------------------------------------------------

 SCF Done:  E(RB3LYP) =  -2782.25921369     A.U. after    1 cycles

 Alpha  occ. eigenvalues --  -19.29816 -19.26275 -19.25476 -19.21373 -19.21305
 Alpha  occ. eigenvalues --  -19.19658 -19.18308 -19.16250 -19.16066 -19.06467
 Alpha  occ. eigenvalues --  -19.05377 -14.58820 -14.49069 -14.47928 -14.47477
 Alpha  occ. eigenvalues --  -14.45529 -14.45120 -14.43071 -14.41052 -14.40439
 Alpha  occ. eigenvalues --  -14.37455 -10.43386 -10.42899 -10.39801 -10.39175
 Alpha  occ. eigenvalues --  -10.39130 -10.38634 -10.36600 -10.34910 -10.34777
 Alpha  occ. eigenvalues --  -10.33278 -10.32477 -10.31778 -10.31272 -10.30475
 Alpha  occ. eigenvalues --  -10.30258 -10.30206 -10.30134 -10.30066 -10.29943
 Alpha  occ. eigenvalues --  -10.29871 -10.29435 -10.29378 -10.29141 -10.26866
 Alpha  occ. eigenvalues --  -10.26062 -10.25835 -10.25320 -10.25195 -10.24387
 Alpha  occ. eigenvalues --  -10.22885 -10.22386 -10.21755 -10.21578 -10.20666
 Alpha  occ. eigenvalues --  -10.20167 -10.19335  -1.18566  -1.17460  -1.16982
 Alpha  occ. eigenvalues --   -1.13459  -1.12626  -1.11798  -1.11402  -1.10023
 Alpha  occ. eigenvalues --   -1.08306  -1.07891  -1.06597  -1.05609  -1.01656
 Alpha  occ. eigenvalues --   -1.01203  -0.99742  -0.99699  -0.99513  -0.98226
 Alpha  occ. eigenvalues --   -0.96775  -0.96275  -0.94327  -0.92847  -0.90886
 Alpha  occ. eigenvalues --   -0.89779  -0.87214  -0.86005  -0.85032  -0.84954
 Alpha  occ. eigenvalues --   -0.84754  -0.84208  -0.83113  -0.82856  -0.79516
 Alpha  occ. eigenvalues --   -0.79091  -0.78089  -0.77384  -0.76369  -0.74232
 Alpha  occ. eigenvalues --   -0.74131  -0.73437  -0.72564  -0.71720  -0.71248
 Alpha  occ. eigenvalues --   -0.70933  -0.70697  -0.70598  -0.70465  -0.68986
 Alpha  occ. eigenvalues --   -0.68935  -0.68379  -0.67392  -0.66578  -0.66122
 Alpha  occ. eigenvalues --   -0.65648  -0.64616  -0.64542  -0.63984  -0.63420
 Alpha  occ. eigenvalues --   -0.62782  -0.62651  -0.61590  -0.60889  -0.60446
 Alpha  occ. eigenvalues --   -0.60125  -0.59700  -0.59312  -0.58487  -0.58368
 Alpha  occ. eigenvalues --   -0.58105  -0.57666  -0.57177  -0.56606  -0.56388
 Alpha  occ. eigenvalues --   -0.56075  -0.55542  -0.55358  -0.55308  -0.54758
 Alpha  occ. eigenvalues --   -0.54700  -0.54112  -0.53463  -0.53306  -0.53152
 Alpha  occ. eigenvalues --   -0.53000  -0.52463  -0.52275  -0.51852  -0.51386
 Alpha  occ. eigenvalues --   -0.51062  -0.50965  -0.50850  -0.50753  -0.50362
 Alpha  occ. eigenvalues --   -0.50173  -0.49891  -0.49744  -0.48754  -0.48585
 Alpha  occ. eigenvalues --   -0.48470  -0.48163  -0.47570  -0.47419  -0.47344
 Alpha  occ. eigenvalues --   -0.47320  -0.46880  -0.46682  -0.46536  -0.46467
 Alpha  occ. eigenvalues --   -0.46032  -0.45652  -0.45379  -0.44883  -0.44738
 Alpha  occ. eigenvalues --   -0.44535  -0.44371  -0.44280  -0.43874  -0.43470
 Alpha  occ. eigenvalues --   -0.43038  -0.43007  -0.42823  -0.42679  -0.42538
 Alpha  occ. eigenvalues --   -0.41686  -0.41588  -0.41203  -0.41130  -0.40714
 Alpha  occ. eigenvalues --   -0.40283  -0.39940  -0.38990  -0.38858  -0.38795
 Alpha  occ. eigenvalues --   -0.38730  -0.38207  -0.37655  -0.36664  -0.35969
 Alpha  occ. eigenvalues --   -0.35927  -0.35707  -0.35695  -0.35180  -0.35085
 Alpha  occ. eigenvalues --   -0.35058  -0.35005  -0.34920  -0.34712  -0.33889
 Alpha  occ. eigenvalues --   -0.33846  -0.32926  -0.32068  -0.31774  -0.30721
 Alpha  occ. eigenvalues --   -0.29525  -0.29395  -0.28398  -0.21506  -0.21437
 Alpha  occ. eigenvalues --   -0.19795
 Alpha virt. eigenvalues --   -0.12831  -0.11535  -0.11185  -0.08603  -0.07850
 Alpha virt. eigenvalues --   -0.07113  -0.05819  -0.05352  -0.04880  -0.04870
 Alpha virt. eigenvalues --   -0.04186  -0.03864  -0.02375  -0.02202  -0.01595

 Mulliken charges:
               1
     1  N   -0.744948
     2  H    0.409643
     3  H    0.421229
     4  H    0.418587
     5  C   -0.132589
     6  H    0.192515
     7  C    0.662094
     8  C    0.133588
     9  H    0.191785
    10  O   -0.532082
    11  C   -0.502002
    12  H    0.193651
    13  H    0.207313
    14  H    0.164557
    15  O   -0.632150
    16  H    0.422404
    17  N   -0.605003
    18  H    0.362679
    19  C   -0.063465
    20  H    0.197316
    21  C    0.635816
    22  C   -0.369095
    23  H    0.179553
    24  H    0.183041
    25  O   -0.548015
    26  C    0.170853
    27  C   -0.149758
    28  H    0.153924
    29  C   -0.198899
    30  H    0.144469
    31  C   -0.129793
    32  H    0.162855
    33  C   -0.196643
    34  H    0.155857
    35  C   -0.151267
    36  H    0.159240
    37  N   -0.617354
    38  H    0.361239
    39  C   -0.046193
    40  H    0.185829
    41  C    0.624715
    42  C   -0.449844
    43  H    0.169918
    44  H    0.164476
    45  H    0.182690
    46  O   -0.552943
    47  N   -0.632644
    48  H    0.364087
    49  C   -0.028012
    50  H    0.182587
    51  C    0.600337
    52  C   -0.299341
    53  H    0.215203
    54  H    0.160637
    55  O   -0.541129
    56  C   -0.375260
    57  H    0.218777
    58  H    0.188620
    59  C    0.594767
    60  O   -0.485991
    61  O   -0.552442
    62  N   -0.614108
    63  H    0.390041
    64  C   -0.052074
    65  H    0.170837
    66  C    0.634095
    67  C   -0.466426
    68  H    0.130481
    69  H    0.174391
    70  H    0.173092
    71  O   -0.537377
    72  N   -0.594662
    73  H    0.333735
    74  C   -0.073604
    75  H    0.193123
    76  C    0.613589
    77  C   -0.256588
    78  H    0.132717
    79  H    0.165775
    80  O   -0.630215
    81  C   -0.076982
    82  H    0.142433
    83  C   -0.442257
    84  H    0.147876
    85  H    0.137476
    86  H    0.130729
    87  C   -0.463562
    88  H    0.148798
    89  H    0.124394
    90  H    0.173975
    91  N   -0.603631
    92  H    0.375408
    93  C   -0.063831
    94  H    0.150786
    95  C    0.585656
    96  C   -0.268782
    97  H    0.189524
    98  H    0.105149
    99  O   -0.574641
   100  C   -0.314281
   101  H    0.177245
   102  H    0.164597
   103  C   -0.151175
   104  H    0.180603
   105  H    0.176503
   106  N   -0.587347
   107  H    0.360042
   108  N   -0.780269
   109  H    0.352707
   110  H    0.459352
   111  N   -0.760471
   112  H    0.368076
   113  H    0.369172
   114  C    0.773135
   115  O   -0.610739
   116  H    0.417522
 Sum of Mulliken charges =   1.00000

 Dipole moment (field-independent basis, Debye):
    X=            -22.1813    Y=             -4.2250    Z=            -26.6677  Tot=             34.9432
 Quadrupole moment (field-independent basis, Debye-Ang):
   XX=              3.2667   YY=           -110.9621   ZZ=           -310.1891
   XY=            308.6505   XZ=            128.4605   YZ=            219.3035

 Normal termination of Gaussian 16 at Thu Jun 30 14:49:04 2022.
