 Gaussian 16, Revision C.01,
 Gaussian 16:  ES64L-G16RevC.01  3-Jul-2019

 -------------------------------------------------------------------
 # B3LYP/6-31G* guess=read geom=check nosymm integral(ultrafinegrid)
 -------------------------------------------------------------------

 ------------------------------------------------------
 Candidate Structure: Conf:684 Charge calc in gas phase
 ------------------------------------------------------
 Structure from the checkpoint file:  "conf-684.chk"
 Charge =  1 Multiplicity = 1

                          Input orientation:
 ---------------------------------------------------------------------
 Center     Atomic      Atomic             Coordinates (Angstroms)
 Number     Number       Type             X           Y           Z
 ---------------------------------------------------------------------
      1          7           0       -7.843180   -1.236735   -8.033682
      2          1           0       -8.499275   -1.987237   -7.800999
      3          1           0       -8.029271   -0.420821   -7.401175
      4          1           0       -7.920559   -1.004484   -9.038190
      5          6           0       -6.407231   -1.596131   -7.748569
      6          1           0       -6.307932   -2.683232   -7.785894
      7          6           0       -6.146660   -1.000794   -6.341687
      8          6           0       -5.533604   -0.938283   -8.848973
      9          1           0       -5.471566    0.140127   -8.637008
     10          8           0       -6.915227   -0.109763   -5.954212
     11          6           0       -4.135759   -1.542503   -8.930435
     12          1           0       -3.569766   -1.396472   -8.005040
     13          1           0       -3.571643   -1.056702   -9.733643
     14          1           0       -4.191467   -2.613011   -9.153753
     15          8           0       -6.285306   -1.152923  -10.049188
     16          1           0       -5.851339   -0.701208  -10.790896
     17          7           0       -5.102754   -1.480966   -5.676240
     18          1           0       -4.446195   -2.149907   -6.086232
     19          6           0       -4.598236   -0.920120   -4.422107
     20          1           0       -4.647076    0.172111   -4.488723
     21          6           0       -3.115218   -1.368580   -4.390556
     22          6           0       -5.443887   -1.380117   -3.198828
     23          1           0       -6.486324   -1.405885   -3.534762
     24          1           0       -5.167312   -2.405644   -2.930059
     25          8           0       -2.679228   -2.089263   -5.299672
     26          6           0       -5.335433   -0.456904   -2.001057
     27          6           0       -4.702007   -0.860726   -0.819985
     28          1           0       -4.265906   -1.854445   -0.753890
     29          6           0       -5.898336    0.828502   -2.061095
     30          1           0       -6.413023    1.147033   -2.965842
     31          6           0       -4.626132    0.000840    0.277352
     32          1           0       -4.127814   -0.327339    1.184523
     33          6           0       -5.823283    1.688490   -0.967316
     34          1           0       -6.268765    2.677613   -1.025979
     35          6           0       -5.185362    1.275702    0.206025
     36          1           0       -5.128021    1.945067    1.059420
     37          7           0       -2.368327   -0.938287   -3.364913
     38          1           0       -2.762667   -0.409235   -2.588534
     39          6           0       -0.964088   -1.312697   -3.219648
     40          1           0       -0.862296   -2.367196   -3.499097
     41          6           0       -0.613637   -1.123301   -1.734570
     42          6           0       -0.048981   -0.462426   -4.120744
     43          1           0        0.997369   -0.768164   -4.018766
     44          1           0       -0.126392    0.596703   -3.855765
     45          1           0       -0.343017   -0.593943   -5.165146
     46          8           0       -1.331095   -0.435106   -1.001722
     47          7           0        0.513193   -1.732158   -1.309387
     48          1           0        1.083482   -2.249331   -1.966513
     49          6           0        0.992311   -1.636335    0.078146
     50          1           0        0.094695   -1.593733    0.704685
     51          6           0        1.794650   -0.324463    0.278496
     52          6           0        1.821480   -2.873438    0.426595
     53          1           0        2.738582   -2.876459   -0.172170
     54          1           0        1.250190   -3.769579    0.162084
     55          8           0        3.024258   -0.319478    0.330150
     56          6           0        2.195611   -2.924501    1.908705
     57          1           0        2.861812   -2.096070    2.169554
     58          1           0        1.310345   -2.823639    2.551537
     59          6           0        2.882212   -4.221530    2.278022
     60          8           0        3.071712   -5.159965    1.536419
     61          8           0        3.267254   -4.215853    3.575790
     62          7           0        1.031718    0.788674    0.384982
     63          1           0        0.024665    0.696465    0.292696
     64          6           0        1.608830    2.126808    0.561436
     65          1           0        2.577043    2.115454    0.050204
     66          6           0        1.846825    2.393778    2.071179
     67          6           0        0.693929    3.184957   -0.044878
     68          1           0        1.155199    4.172639    0.037800
     69          1           0       -0.257640    3.226513    0.492890
     70          1           0        0.509368    2.970225   -1.102638
     71          8           0        1.098718    3.119945    2.720350
     72          7           0        2.915169    1.733908    2.585497
     73          1           0        3.524153    1.206088    1.965916
     74          6           0        3.354202    1.877331    3.963823
     75          1           0        2.821940    2.736514    4.380081
     76          6           0        4.868763    2.139991    3.950755
     77          6           0        3.081701    0.612791    4.817887
     78          1           0        3.656959   -0.214160    4.379010
     79          1           0        3.499473    0.781009    5.820791
     80          8           0        5.584243    1.694153    3.051922
     81          6           0        1.605407    0.194551    4.954227
     82          1           0        1.202072    0.057990    3.939824
     83          6           0        1.519078   -1.155458    5.685009
     84          1           0        1.907061   -1.071773    6.708321
     85          1           0        2.097623   -1.935362    5.174796
     86          1           0        0.479140   -1.496371    5.756291
     87          6           0        0.753939    1.258489    5.663637
     88          1           0        1.157640    1.482384    6.660128
     89          1           0       -0.273535    0.900162    5.800138
     90          1           0        0.704542    2.187751    5.088132
     91          7           0        5.343775    2.849881    5.003771
     92          1           0        4.739112    3.077801    5.787950
     93          6           0        6.762711    2.924732    5.316868
     94          1           0        7.247299    2.072401    4.837830
     95          6           0        6.912583    2.796609    6.845180
     96          6           0        7.411401    4.243575    4.824725
     97          1           0        8.341626    4.411252    5.378893
     98          1           0        6.740137    5.064487    5.103347
     99          8           0        8.115987    2.466312    7.298807
    100          6           0        7.689611    4.305958    3.313016
    101          1           0        8.019143    5.325095    3.066642
    102          1           0        6.763264    4.128509    2.754746
    103          6           0        8.740012    3.304135    2.795054
    104          1           0        8.882595    3.449849    1.719533
    105          1           0        8.371981    2.281326    2.908410
    106          7           0       10.056468    3.421388    3.425883
    107          1           0       10.646248    4.177853    3.104114
    108          7           0        9.808445    1.869308    5.223571
    109          1           0        8.765719    2.207319    6.565211
    110          1           0        9.306256    1.311707    4.533796
    111          7           0       11.315183    3.616309    5.363980
    112          1           0       11.285318    4.627824    5.338297
    113          1           0       11.519375    3.227544    6.276100
    114          6           0       10.341531    2.923537    4.674141
    115          8           0        5.974958    3.027888    7.584578
    116          1           0        3.697306   -5.075594    3.744688
 ---------------------------------------------------------------------

 SCF Done:  E(RB3LYP) =  -2782.29173341     A.U. after    3 cycles

 Alpha  occ. eigenvalues --  -19.31052 -19.27198 -19.24554 -19.23008 -19.21634
 Alpha  occ. eigenvalues --  -19.19909 -19.19028 -19.18220 -19.15844 -19.15752
 Alpha  occ. eigenvalues --  -19.15616 -14.60061 -14.49951 -14.46344 -14.45883
 Alpha  occ. eigenvalues --  -14.42356 -14.40689 -14.39903 -14.39884 -14.39596
 Alpha  occ. eigenvalues --  -14.34160 -10.44230 -10.41318 -10.40605 -10.40022
 Alpha  occ. eigenvalues --  -10.38594 -10.37253 -10.35375 -10.35248 -10.34267
 Alpha  occ. eigenvalues --  -10.34219 -10.33423 -10.32838 -10.32809 -10.31504
 Alpha  occ. eigenvalues --  -10.31229 -10.29673 -10.28705 -10.28059 -10.27450
 Alpha  occ. eigenvalues --  -10.27322 -10.27120 -10.27053 -10.26782 -10.26754
 Alpha  occ. eigenvalues --  -10.26514 -10.26361 -10.26242 -10.25917 -10.25824
 Alpha  occ. eigenvalues --  -10.23585 -10.23450 -10.23262 -10.22628 -10.22585
 Alpha  occ. eigenvalues --  -10.20806 -10.20068  -1.19985  -1.18277  -1.15430
 Alpha  occ. eigenvalues --   -1.14978  -1.13805  -1.13389  -1.11397  -1.09997
 Alpha  occ. eigenvalues --   -1.07840  -1.07084  -1.06623  -1.06513  -1.03550
 Alpha  occ. eigenvalues --   -1.03186  -1.02882  -1.01928  -0.98600  -0.96479
 Alpha  occ. eigenvalues --   -0.96136  -0.94350  -0.94152  -0.93425  -0.89631
 Alpha  occ. eigenvalues --   -0.89506  -0.87907  -0.85883  -0.85562  -0.84935
 Alpha  occ. eigenvalues --   -0.83776  -0.82890  -0.82552  -0.81976  -0.79710
 Alpha  occ. eigenvalues --   -0.79302  -0.78187  -0.77094  -0.76469  -0.75352
 Alpha  occ. eigenvalues --   -0.74691  -0.72334  -0.72294  -0.72174  -0.71787
 Alpha  occ. eigenvalues --   -0.71343  -0.70482  -0.69670  -0.68257  -0.67957
 Alpha  occ. eigenvalues --   -0.67732  -0.67451  -0.66297  -0.65925  -0.65524
 Alpha  occ. eigenvalues --   -0.65137  -0.64225  -0.63718  -0.63358  -0.62651
 Alpha  occ. eigenvalues --   -0.62277  -0.62010  -0.61634  -0.60612  -0.60466
 Alpha  occ. eigenvalues --   -0.60348  -0.59732  -0.58957  -0.58612  -0.58454
 Alpha  occ. eigenvalues --   -0.58142  -0.57180  -0.56958  -0.56616  -0.56143
 Alpha  occ. eigenvalues --   -0.55437  -0.55152  -0.54710  -0.54526  -0.53987
 Alpha  occ. eigenvalues --   -0.53604  -0.53561  -0.53240  -0.52926  -0.52823
 Alpha  occ. eigenvalues --   -0.52745  -0.52551  -0.52379  -0.52222  -0.51404
 Alpha  occ. eigenvalues --   -0.51330  -0.51204  -0.50813  -0.50415  -0.49955
 Alpha  occ. eigenvalues --   -0.49832  -0.49545  -0.49178  -0.48824  -0.48538
 Alpha  occ. eigenvalues --   -0.48397  -0.48150  -0.47751  -0.47669  -0.47550
 Alpha  occ. eigenvalues --   -0.47287  -0.46923  -0.46475  -0.46425  -0.46194
 Alpha  occ. eigenvalues --   -0.45917  -0.45574  -0.45175  -0.44886  -0.44635
 Alpha  occ. eigenvalues --   -0.44242  -0.44068  -0.43755  -0.43682  -0.43453
 Alpha  occ. eigenvalues --   -0.43371  -0.43250  -0.42733  -0.42459  -0.42445
 Alpha  occ. eigenvalues --   -0.42198  -0.41979  -0.41773  -0.41406  -0.41296
 Alpha  occ. eigenvalues --   -0.41254  -0.41027  -0.40882  -0.40423  -0.39906
 Alpha  occ. eigenvalues --   -0.39709  -0.39386  -0.38465  -0.38076  -0.37352
 Alpha  occ. eigenvalues --   -0.36818  -0.36788  -0.36293  -0.35954  -0.35822
 Alpha  occ. eigenvalues --   -0.35718  -0.35374  -0.33215  -0.33050  -0.32790
 Alpha  occ. eigenvalues --   -0.32638  -0.32521  -0.32228  -0.31312  -0.31088
 Alpha  occ. eigenvalues --   -0.30566  -0.30056  -0.28967  -0.28772  -0.28363
 Alpha  occ. eigenvalues --   -0.27987
 Alpha virt. eigenvalues --   -0.13241  -0.10668  -0.09227  -0.07823  -0.07747
 Alpha virt. eigenvalues --   -0.07290  -0.06716  -0.05053  -0.04899  -0.03941
 Alpha virt. eigenvalues --   -0.02949  -0.02162  -0.01794  -0.01727  -0.01217

 Mulliken charges:
               1
     1  N   -0.748245
     2  H    0.417386
     3  H    0.425699
     4  H    0.431548
     5  C   -0.123665
     6  H    0.216568
     7  C    0.642974
     8  C    0.126847
     9  H    0.172312
    10  O   -0.537226
    11  C   -0.488348
    12  H    0.193127
    13  H    0.184708
    14  H    0.184709
    15  O   -0.647654
    16  H    0.435453
    17  N   -0.610128
    18  H    0.378271
    19  C   -0.061000
    20  H    0.203269
    21  C    0.624965
    22  C   -0.355179
    23  H    0.179853
    24  H    0.166415
    25  O   -0.555825
    26  C    0.131308
    27  C   -0.184079
    28  H    0.134539
    29  C   -0.187811
    30  H    0.139077
    31  C   -0.111747
    32  H    0.150160
    33  C   -0.126399
    34  H    0.147557
    35  C   -0.127801
    36  H    0.153542
    37  N   -0.623316
    38  H    0.385991
    39  C   -0.045895
    40  H    0.186370
    41  C    0.628103
    42  C   -0.449251
    43  H    0.163506
    44  H    0.171916
    45  H    0.183133
    46  O   -0.546592
    47  N   -0.612169
    48  H    0.346785
    49  C   -0.058598
    50  H    0.178200
    51  C    0.633164
    52  C   -0.279589
    53  H    0.178179
    54  H    0.162643
    55  O   -0.532948
    56  C   -0.379220
    57  H    0.216960
    58  H    0.180628
    59  C    0.585392
    60  O   -0.460579
    61  O   -0.563041
    62  N   -0.609339
    63  H    0.364477
    64  C   -0.056268
    65  H    0.177516
    66  C    0.621327
    67  C   -0.459231
    68  H    0.173584
    69  H    0.174266
    70  H    0.138058
    71  O   -0.525100
    72  N   -0.604744
    73  H    0.367614
    74  C   -0.075730
    75  H    0.182873
    76  C    0.619934
    77  C   -0.261744
    78  H    0.145330
    79  H    0.147116
    80  O   -0.549207
    81  C   -0.065585
    82  H    0.116244
    83  C   -0.456285
    84  H    0.148927
    85  H    0.149745
    86  H    0.135942
    87  C   -0.467573
    88  H    0.140053
    89  H    0.135849
    90  H    0.181433
    91  N   -0.602567
    92  H    0.353477
    93  C   -0.070428
    94  H    0.164264
    95  C    0.594713
    96  C   -0.267025
    97  H    0.143114
    98  H    0.159077
    99  O   -0.604770
   100  C   -0.258639
   101  H    0.130229
   102  H    0.169140
   103  C   -0.167553
   104  H    0.160023
   105  H    0.183818
   106  N   -0.581104
   107  H    0.325696
   108  N   -0.734240
   109  H    0.462383
   110  H    0.300061
   111  N   -0.741522
   112  H    0.329067
   113  H    0.355034
   114  C    0.644938
   115  O   -0.478445
   116  H    0.416826
 Sum of Mulliken charges =   1.00000

 Dipole moment (field-independent basis, Debye):
    X=            -22.2067    Y=             -2.9390    Z=            -35.3045  Tot=             41.8112
 Quadrupole moment (field-independent basis, Debye-Ang):
   XX=            -80.8253   YY=           -300.7868   ZZ=            -89.5395
   XY=             85.3306   XZ=            215.7912   YZ=             33.5944

 Normal termination of Gaussian 16 at Thu Jun 30 14:51:53 2022.
