 Gaussian 16, Revision C.01,
 Gaussian 16:  ES64L-G16RevC.01  3-Jul-2019

 -------------------------------------------------------------------
 # B3LYP/6-31G* guess=read geom=check nosymm integral(ultrafinegrid)
 -------------------------------------------------------------------

 ------------------------------------------------------
 Candidate Structure: Conf:961 Charge calc in gas phase
 ------------------------------------------------------
 Structure from the checkpoint file:  "conf-961.chk"
 Charge =  1 Multiplicity = 1

                          Input orientation:
 ---------------------------------------------------------------------
 Center     Atomic      Atomic             Coordinates (Angstroms)
 Number     Number       Type             X           Y           Z
 ---------------------------------------------------------------------
      1          7           0       -7.280303   -4.266839   -7.866251
      2          1           0       -7.235564   -5.150875   -7.333295
      3          1           0       -7.970207   -3.661193   -7.379375
      4          1           0       -7.526191   -4.418864   -8.854991
      5          6           0       -5.980329   -3.504524   -7.798402
      6          1           0       -5.167854   -4.224401   -7.919510
      7          6           0       -6.034022   -2.866134   -6.394348
      8          6           0       -5.976047   -2.488252   -8.954627
      9          1           0       -6.723001   -1.712108   -8.728670
     10          8           0       -7.142489   -2.495972   -5.996546
     11          6           0       -4.602912   -1.855091   -9.150985
     12          1           0       -4.283376   -1.313282   -8.254336
     13          1           0       -4.635953   -1.133470   -9.973815
     14          1           0       -3.856164   -2.617862   -9.394916
     15          8           0       -6.394710   -3.261803  -10.084049
     16          1           0       -6.480460   -2.684199  -10.859207
     17          7           0       -4.898023   -2.834856   -5.695115
     18          1           0       -3.987764   -3.051825   -6.098019
     19          6           0       -4.847418   -2.566528   -4.263977
     20          1           0       -5.650059   -1.869459   -4.013405
     21          6           0       -3.449268   -1.969588   -4.004973
     22          6           0       -5.002263   -3.897017   -3.448089
     23          1           0       -4.041091   -4.422348   -3.484302
     24          1           0       -5.181875   -3.628312   -2.401219
     25          8           0       -2.533578   -2.232386   -4.790484
     26          6           0       -6.092564   -4.813392   -3.964546
     27          6           0       -7.432606   -4.644702   -3.587866
     28          1           0       -7.695228   -3.865575   -2.876796
     29          6           0       -5.781250   -5.833516   -4.875808
     30          1           0       -4.742478   -6.008169   -5.147880
     31          6           0       -8.435912   -5.456358   -4.117591
     32          1           0       -9.466021   -5.312883   -3.804555
     33          6           0       -6.782586   -6.653471   -5.413024
     34          1           0       -6.512966   -7.473278   -6.075631
     35          6           0       -8.117558   -6.460963   -5.036972
     36          1           0       -8.895802   -7.111616   -5.426943
     37          7           0       -3.323677   -1.235902   -2.891859
     38          1           0       -4.095116   -1.081084   -2.243234
     39          6           0       -2.055097   -0.712941   -2.397949
     40          1           0       -1.296222   -1.499974   -2.482054
     41          6           0       -2.307943   -0.387121   -0.908800
     42          6           0       -1.589544    0.522031   -3.188112
     43          1           0       -0.629503    0.887145   -2.809954
     44          1           0       -2.323664    1.330017   -3.105651
     45          1           0       -1.466087    0.256292   -4.241152
     46          8           0       -3.457873   -0.381112   -0.457726
     47          7           0       -1.212577   -0.104870   -0.185622
     48          1           0       -0.276527   -0.119890   -0.583978
     49          6           0       -1.241093    0.305139    1.213517
     50          1           0       -2.082262    0.986891    1.363741
     51          6           0        0.096672    1.031016    1.450187
     52          6           0       -1.406724   -0.937957    2.127568
     53          1           0       -0.588944   -1.632199    1.904927
     54          1           0       -2.342715   -1.423717    1.831754
     55          8           0        1.078271    0.761956    0.752221
     56          6           0       -1.402459   -0.689459    3.654318
     57          1           0       -1.569174   -1.643292    4.161206
     58          1           0       -0.426413   -0.299609    3.966688
     59          6           0       -2.455978    0.296475    4.095137
     60          8           0       -2.416268    1.502233    3.894716
     61          8           0       -3.489146   -0.275671    4.737832
     62          7           0        0.104185    1.945503    2.441710
     63          1           0       -0.724121    2.010761    3.034843
     64          6           0        1.357211    2.505253    2.923594
     65          1           0        1.896769    2.914455    2.062677
     66          6           0        2.218832    1.393139    3.568181
     67          6           0        1.071610    3.613616    3.944189
     68          1           0        2.006403    4.061782    4.293727
     69          1           0        0.542242    3.206870    4.812743
     70          1           0        0.457137    4.400093    3.494796
     71          8           0        1.706095    0.448893    4.169101
     72          7           0        3.552361    1.570796    3.439405
     73          1           0        3.922902    2.422179    3.030506
     74          6           0        4.553936    0.727673    4.072193
     75          1           0        4.067117    0.190560    4.891047
     76          6           0        5.645589    1.664146    4.616956
     77          6           0        5.195707   -0.273359    3.077220
     78          1           0        5.676684    0.316377    2.284963
     79          1           0        6.001811   -0.809415    3.598392
     80          8           0        5.814074    2.787299    4.132944
     81          6           0        4.237076   -1.298608    2.440424
     82          1           0        3.407135   -0.747102    1.978340
     83          6           0        4.973136   -2.061598    1.327517
     84          1           0        5.822299   -2.628712    1.730663
     85          1           0        5.360255   -1.380297    0.560374
     86          1           0        4.303061   -2.775579    0.834407
     87          6           0        3.651845   -2.272029    3.474694
     88          1           0        4.448644   -2.810418    4.005510
     89          1           0        3.022649   -3.022655    2.981074
     90          1           0        3.027360   -1.753369    4.207989
     91          7           0        6.404233    1.157425    5.615627
     92          1           0        6.317525    0.180805    5.884291
     93          6           0        7.658061    1.765871    6.037174
     94          1           0        8.014745    2.385897    5.213033
     95          6           0        8.664947    0.624232    6.283645
     96          6           0        7.500787    2.626419    7.316582
     97          1           0        8.482420    2.743942    7.788613
     98          1           0        6.890665    2.053808    8.025072
     99          8           0        8.277913   -0.512992    6.476284
    100          6           0        6.861940    4.008757    7.097866
    101          1           0        6.679964    4.461621    8.082445
    102          1           0        5.884237    3.897015    6.615126
    103          6           0        7.689370    4.990183    6.244612
    104          1           0        7.161292    5.946527    6.175763
    105          1           0        7.769610    4.622238    5.218463
    106          7           0        9.027982    5.271761    6.766431
    107          1           0        9.087327    5.932422    7.530305
    108          7           0       10.286121    3.586390    5.636826
    109          1           0       10.123127    1.919512    6.038842
    110          1           0        9.681106    3.810695    4.847919
    111          7           0       11.023338    4.475072    7.638501
    112          1           0       10.691564    4.549304    8.591797
    113          1           0       11.804885    3.844227    7.512987
    114          6           0       10.087983    4.409215    6.627876
    115          8           0        9.948192    0.958394    6.314525
    116          1           0       -4.107997    0.442686    4.973951
 ---------------------------------------------------------------------

 SCF Done:  E(RB3LYP) =  -2782.30702338     A.U. after    3 cycles

 Alpha  occ. eigenvalues --  -19.29540 -19.26109 -19.25394 -19.21162 -19.20693
 Alpha  occ. eigenvalues --  -19.20257 -19.19258 -19.17698 -19.16763 -19.16348
 Alpha  occ. eigenvalues --  -19.16154 -14.58689 -14.48955 -14.44861 -14.42920
 Alpha  occ. eigenvalues --  -14.41016 -14.41012 -14.40571 -14.40555 -14.40202
 Alpha  occ. eigenvalues --  -14.34470 -10.42820 -10.39767 -10.39077 -10.38650
 Alpha  occ. eigenvalues --  -10.38421 -10.36321 -10.34634 -10.34602 -10.34595
 Alpha  occ. eigenvalues --  -10.34487 -10.33670 -10.33429 -10.31582 -10.30550
 Alpha  occ. eigenvalues --  -10.30356 -10.30115 -10.30014 -10.29823 -10.29762
 Alpha  occ. eigenvalues --  -10.29716 -10.29330 -10.29268 -10.28767 -10.27845
 Alpha  occ. eigenvalues --  -10.27811 -10.27458 -10.25902 -10.25638 -10.25201
 Alpha  occ. eigenvalues --  -10.24028 -10.24008 -10.23670 -10.22755 -10.22199
 Alpha  occ. eigenvalues --  -10.20627 -10.20098  -1.18457  -1.17101  -1.16770
 Alpha  occ. eigenvalues --   -1.13240  -1.12448  -1.11791  -1.11114  -1.09561
 Alpha  occ. eigenvalues --   -1.08630  -1.07812  -1.07713  -1.05491  -1.03923
 Alpha  occ. eigenvalues --   -1.03535  -1.01434  -0.99521  -0.97924  -0.97253
 Alpha  occ. eigenvalues --   -0.97036  -0.96162  -0.94479  -0.92882  -0.89814
 Alpha  occ. eigenvalues --   -0.89644  -0.87006  -0.85774  -0.85209  -0.84919
 Alpha  occ. eigenvalues --   -0.84598  -0.84068  -0.82851  -0.82604  -0.79792
 Alpha  occ. eigenvalues --   -0.78831  -0.77828  -0.77358  -0.75978  -0.73816
 Alpha  occ. eigenvalues --   -0.73310  -0.72630  -0.72105  -0.71449  -0.71271
 Alpha  occ. eigenvalues --   -0.70962  -0.70575  -0.70547  -0.68843  -0.68764
 Alpha  occ. eigenvalues --   -0.67361  -0.66325  -0.66036  -0.65789  -0.65412
 Alpha  occ. eigenvalues --   -0.64653  -0.64161  -0.63552  -0.63073  -0.62894
 Alpha  occ. eigenvalues --   -0.62827  -0.62472  -0.61446  -0.60964  -0.60726
 Alpha  occ. eigenvalues --   -0.60247  -0.59062  -0.58835  -0.58580  -0.57740
 Alpha  occ. eigenvalues --   -0.56951  -0.56680  -0.56426  -0.56247  -0.55805
 Alpha  occ. eigenvalues --   -0.55758  -0.55349  -0.55275  -0.54311  -0.53914
 Alpha  occ. eigenvalues --   -0.53622  -0.53446  -0.52998  -0.52876  -0.52456
 Alpha  occ. eigenvalues --   -0.52333  -0.52266  -0.51893  -0.51730  -0.51550
 Alpha  occ. eigenvalues --   -0.51286  -0.51077  -0.50638  -0.50542  -0.50177
 Alpha  occ. eigenvalues --   -0.50073  -0.49888  -0.49183  -0.48796  -0.48417
 Alpha  occ. eigenvalues --   -0.48198  -0.48125  -0.47923  -0.47749  -0.47528
 Alpha  occ. eigenvalues --   -0.47184  -0.47069  -0.46815  -0.46595  -0.46509
 Alpha  occ. eigenvalues --   -0.45701  -0.45554  -0.45457  -0.45255  -0.44891
 Alpha  occ. eigenvalues --   -0.44521  -0.44443  -0.44347  -0.44244  -0.44069
 Alpha  occ. eigenvalues --   -0.44014  -0.43478  -0.43184  -0.42551  -0.42450
 Alpha  occ. eigenvalues --   -0.42354  -0.41947  -0.41923  -0.41424  -0.41285
 Alpha  occ. eigenvalues --   -0.41047  -0.40781  -0.40332  -0.40200  -0.40098
 Alpha  occ. eigenvalues --   -0.39433  -0.38866  -0.38725  -0.38483  -0.38110
 Alpha  occ. eigenvalues --   -0.36372  -0.35818  -0.35785  -0.35658  -0.35591
 Alpha  occ. eigenvalues --   -0.34857  -0.34553  -0.34249  -0.33485  -0.33418
 Alpha  occ. eigenvalues --   -0.33126  -0.32770  -0.31864  -0.31381  -0.31316
 Alpha  occ. eigenvalues --   -0.31148  -0.30702  -0.29779  -0.29423  -0.29381
 Alpha  occ. eigenvalues --   -0.28308
 Alpha virt. eigenvalues --   -0.12707  -0.11423  -0.11067  -0.07523  -0.06909
 Alpha virt. eigenvalues --   -0.05821  -0.05051  -0.04971  -0.04083  -0.03559
 Alpha virt. eigenvalues --   -0.02765  -0.02126  -0.01871  -0.01700  -0.01128

 Mulliken charges:
               1
     1  N   -0.748266
     2  H    0.410178
     3  H    0.419055
     4  H    0.424222
     5  C   -0.120584
     6  H    0.206491
     7  C    0.657278
     8  C    0.132542
     9  H    0.170987
    10  O   -0.532797
    11  C   -0.481742
    12  H    0.184742
    13  H    0.184232
    14  H    0.181741
    15  O   -0.649432
    16  H    0.430940
    17  N   -0.602838
    18  H    0.364479
    19  C   -0.064556
    20  H    0.197467
    21  C    0.635887
    22  C   -0.368961
    23  H    0.178632
    24  H    0.183976
    25  O   -0.548480
    26  C    0.170886
    27  C   -0.150376
    28  H    0.154057
    29  C   -0.199379
    30  H    0.144805
    31  C   -0.129724
    32  H    0.162093
    33  C   -0.196602
    34  H    0.156477
    35  C   -0.151009
    36  H    0.158493
    37  N   -0.618535
    38  H    0.362402
    39  C   -0.044273
    40  H    0.184140
    41  C    0.625241
    42  C   -0.451063
    43  H    0.169022
    44  H    0.164761
    45  H    0.183233
    46  O   -0.550826
    47  N   -0.623765
    48  H    0.360248
    49  C   -0.052912
    50  H    0.190483
    51  C    0.618484
    52  C   -0.276847
    53  H    0.168357
    54  H    0.176170
    55  O   -0.553411
    56  C   -0.393672
    57  H    0.178195
    58  H    0.241096
    59  C    0.595601
    60  O   -0.486355
    61  O   -0.545983
    62  N   -0.624299
    63  H    0.387111
    64  C   -0.045974
    65  H    0.169109
    66  C    0.642087
    67  C   -0.476905
    68  H    0.168660
    69  H    0.173537
    70  H    0.171217
    71  O   -0.537043
    72  N   -0.594141
    73  H    0.347984
    74  C   -0.074699
    75  H    0.181892
    76  C    0.620135
    77  C   -0.256423
    78  H    0.142473
    79  H    0.145703
    80  O   -0.556113
    81  C   -0.076381
    82  H    0.153557
    83  C   -0.443623
    84  H    0.144227
    85  H    0.140734
    86  H    0.137542
    87  C   -0.464071
    88  H    0.136565
    89  H    0.133764
    90  H    0.172824
    91  N   -0.603089
    92  H    0.355866
    93  C   -0.071576
    94  H    0.165287
    95  C    0.596282
    96  C   -0.267801
    97  H    0.145402
    98  H    0.159477
    99  O   -0.478952
   100  C   -0.258444
   101  H    0.132720
   102  H    0.166587
   103  C   -0.166792
   104  H    0.161653
   105  H    0.181066
   106  N   -0.581605
   107  H    0.327136
   108  N   -0.735867
   109  H    0.463240
   110  H    0.299943
   111  N   -0.741350
   112  H    0.330051
   113  H    0.356028
   114  C    0.647624
   115  O   -0.603476
   116  H    0.416436
 Sum of Mulliken charges =   1.00000

 Dipole moment (field-independent basis, Debye):
    X=            -24.3484    Y=             -8.1201    Z=            -23.0886  Tot=             34.5234
 Quadrupole moment (field-independent basis, Debye-Ang):
   XX=           -135.5752   YY=           -233.2575   ZZ=             -7.8445
   XY=            163.6456   XZ=            242.8059   YZ=            172.6583

 Normal termination of Gaussian 16 at Thu Jun 30 14:51:47 2022.
