 Gaussian 16, Revision C.01,
 Gaussian 16:  ES64L-G16RevC.01  3-Jul-2019

 -------------------------------------------------------------------
 # B3LYP/6-31G* guess=read geom=check nosymm integral(ultrafinegrid)
 -------------------------------------------------------------------

 -----------------------------------------------------
 Candidate Structure: Conf:35 Charge calc in gas phase
 -----------------------------------------------------
 Structure from the checkpoint file:  "conf-35.chk"
 Charge =  1 Multiplicity = 1

                          Input orientation:
 ---------------------------------------------------------------------
 Center     Atomic      Atomic             Coordinates (Angstroms)
 Number     Number       Type             X           Y           Z
 ---------------------------------------------------------------------
      1          7           0       -8.214863   -4.290724   -3.345005
      2          1           0       -8.134091   -4.133928   -2.325386
      3          1           0       -8.910853   -3.607529   -3.699782
      4          1           0       -8.484205   -5.260593   -3.571868
      5          6           0       -6.935046   -3.972516   -4.072893
      6          1           0       -6.108245   -4.366996   -3.476376
      7          6           0       -6.950019   -2.432841   -4.144708
      8          6           0       -7.018292   -4.674847   -5.452387
      9          1           0       -7.779079   -4.151693   -6.043466
     10          8           0       -8.040977   -1.891550   -4.337132
     11          6           0       -5.685831   -4.662314   -6.188542
     12          1           0       -5.335391   -3.638933   -6.357526
     13          1           0       -5.796604   -5.145546   -7.163209
     14          1           0       -4.913291   -5.195825   -5.619313
     15          8           0       -7.535074   -5.990887   -5.240230
     16          1           0       -6.799477   -6.624216   -5.201477
     17          7           0       -5.790664   -1.806233   -3.921039
     18          1           0       -4.902550   -2.299956   -3.881196
     19          6           0       -5.697426   -0.387072   -3.619136
     20          1           0       -6.463655    0.139485   -4.193891
     21          6           0       -4.273254    0.036220   -4.029939
     22          6           0       -5.894432   -0.119751   -2.078795
     23          1           0       -4.931399   -0.275583   -1.580729
     24          1           0       -6.149644    0.938386   -1.950787
     25          8           0       -3.436718   -0.834361   -4.295241
     26          6           0       -6.936051   -0.998463   -1.415025
     27          6           0       -8.295490   -0.654288   -1.421721
     28          1           0       -8.612223    0.275598   -1.887102
     29          6           0       -6.548365   -2.198668   -0.799473
     30          1           0       -5.495728   -2.467170   -0.734937
     31          6           0       -9.250833   -1.492080   -0.845819
     32          1           0      -10.297174   -1.200528   -0.851332
     33          6           0       -7.504712   -3.045266   -0.222215
     34          1           0       -7.178930   -3.946489    0.292174
     35          6           0       -8.860960   -2.695560   -0.247776
     36          1           0       -9.601130   -3.333558    0.228434
     37          7           0       -3.999386    1.354705   -4.001138
     38          1           0       -4.716955    2.002966   -3.700099
     39          6           0       -2.624752    1.889951   -4.115457
     40          1           0       -2.122707    1.284640   -4.875782
     41          6           0       -1.919423    1.697326   -2.746387
     42          6           0       -2.661322    3.354957   -4.528794
     43          1           0       -1.642423    3.725209   -4.668450
     44          1           0       -3.119813    3.966606   -3.745978
     45          1           0       -3.209792    3.478566   -5.467602
     46          8           0       -1.824010    2.606473   -1.930211
     47          7           0       -1.486229    0.428007   -2.523661
     48          1           0       -1.676646   -0.268928   -3.236123
     49          6           0       -1.081504   -0.048220   -1.198311
     50          1           0       -1.437886    0.703404   -0.484733
     51          6           0        0.461655   -0.129690   -1.095249
     52          6           0       -1.748261   -1.402824   -0.935595
     53          1           0       -1.335054   -2.142154   -1.630864
     54          1           0       -2.815923   -1.306151   -1.158102
     55          8           0        1.045839   -1.212269   -1.034332
     56          6           0       -1.580372   -1.918642    0.493281
     57          1           0       -0.545106   -2.214112    0.682825
     58          1           0       -1.818429   -1.136796    1.229836
     59          6           0       -2.495741   -3.086339    0.788323
     60          8           0       -3.470801   -3.420089    0.137413
     61          8           0       -2.121895   -3.740300    1.905653
     62          7           0        1.081824    1.068069   -1.084456
     63          1           0        0.563348    1.944994   -1.115156
     64          6           0        2.527253    1.206709   -0.994100
     65          1           0        2.893285    0.517748   -0.223856
     66          6           0        2.800831    2.662056   -0.571201
     67          6           0        3.229213    0.879640   -2.326140
     68          1           0        4.315710    0.981639   -2.232669
     69          1           0        2.884928    1.558367   -3.113650
     70          1           0        2.999197   -0.149618   -2.613369
     71          8           0        1.935070    3.527679   -0.705031
     72          7           0        4.037331    2.887118   -0.073588
     73          1           0        4.753064    2.167933   -0.149859
     74          6           0        4.605355    4.216798    0.115745
     75          1           0        4.002207    4.928145   -0.455456
     76          6           0        6.037817    4.154035   -0.454876
     77          6           0        4.656913    4.635512    1.604227
     78          1           0        5.265629    3.890421    2.134860
     79          1           0        5.200261    5.588371    1.674457
     80          8           0        6.613348    3.064176   -0.579981
     81          6           0        3.295121    4.782614    2.310262
     82          1           0        2.741025    3.843408    2.174147
     83          6           0        3.516467    4.986426    3.817350
     84          1           0        4.071592    5.913277    4.012193
     85          1           0        4.085523    4.158389    4.257421
     86          1           0        2.560007    5.056660    4.348424
     87          6           0        2.449438    5.921806    1.721780
     88          1           0        2.988220    6.877622    1.770202
     89          1           0        1.517802    6.039717    2.287977
     90          1           0        2.175270    5.723492    0.681725
     91          7           0        6.592068    5.335291   -0.769963
     92          1           0        6.156173    6.227939   -0.532130
     93          6           0        7.996636    5.503633   -1.108107
     94          1           0        8.592705    5.026926   -0.315814
     95          6           0        8.295084    7.045319   -1.026448
     96          6           0        8.385819    4.884202   -2.480288
     97          1           0        8.740802    5.684164   -3.138695
     98          1           0        7.482642    4.480760   -2.946858
     99          8           0        9.451727    7.387577   -1.464551
    100          6           0        9.429312    3.745393   -2.449950
    101          1           0        9.720024    3.530110   -3.485135
    102          1           0        8.958167    2.842618   -2.047885
    103          6           0       10.703155    3.994152   -1.612988
    104          1           0       11.501776    3.334789   -1.979063
    105          1           0       10.523605    3.729280   -0.562107
    106          7           0       11.125081    5.397223   -1.689649
    107          1           0       10.352319    6.121418   -1.809199
    108          7           0       13.137811    5.154306   -0.513697
    109          1           0       13.961219    5.596558   -0.131671
    110          1           0       13.279127    4.238536   -0.914550
    111          7           0       12.112644    7.245296   -0.768725
    112          1           0       11.203451    7.715770   -0.892042
    113          1           0       12.833712    7.689824   -0.221709
    114          6           0       12.127988    5.921831   -0.996014
    115          8           0        7.420631    7.774202   -0.548999
    116          1           0       -2.768283   -4.457576    2.046942
 ---------------------------------------------------------------------

 SCF Done:  E(RB3LYP) =  -2782.29305951     A.U. after    1 cycles

 Alpha  occ. eigenvalues --  -19.29738 -19.26892 -19.25614 -19.23243 -19.21736
 Alpha  occ. eigenvalues --  -19.18864 -19.16439 -19.15819 -19.14913 -19.12358
 Alpha  occ. eigenvalues --  -19.11248 -14.58693 -14.49316 -14.47314 -14.45292
 Alpha  occ. eigenvalues --  -14.43035 -14.42881 -14.41267 -14.40177 -14.39477
 Alpha  occ. eigenvalues --  -14.38039 -10.43010 -10.40301 -10.39738 -10.39734
 Alpha  occ. eigenvalues --  -10.39679 -10.39079 -10.35956 -10.35709 -10.33589
 Alpha  occ. eigenvalues --  -10.32849 -10.32235 -10.31667 -10.31182 -10.30825
 Alpha  occ. eigenvalues --  -10.30418 -10.29836 -10.29778 -10.29751 -10.29747
 Alpha  occ. eigenvalues --  -10.29425 -10.29369 -10.29251 -10.28506 -10.27832
 Alpha  occ. eigenvalues --  -10.26750 -10.26464 -10.26181 -10.25726 -10.24997
 Alpha  occ. eigenvalues --  -10.23152 -10.22499 -10.21846 -10.21706 -10.21518
 Alpha  occ. eigenvalues --  -10.19942 -10.19120  -1.18590  -1.17963  -1.16993
 Alpha  occ. eigenvalues --   -1.15119  -1.12618  -1.10743  -1.08818  -1.08540
 Alpha  occ. eigenvalues --   -1.08352  -1.07520  -1.06407  -1.05994  -1.04921
 Alpha  occ. eigenvalues --   -1.03268  -0.99569  -0.98133  -0.96689  -0.96572
 Alpha  occ. eigenvalues --   -0.96491  -0.96154  -0.96121  -0.94481  -0.92846
 Alpha  occ. eigenvalues --   -0.90096  -0.87445  -0.86312  -0.85271  -0.84799
 Alpha  occ. eigenvalues --   -0.84175  -0.83372  -0.83172  -0.81933  -0.79718
 Alpha  occ. eigenvalues --   -0.78455  -0.78206  -0.76463  -0.76283  -0.73677
 Alpha  occ. eigenvalues --   -0.73322  -0.72440  -0.71881  -0.71747  -0.71108
 Alpha  occ. eigenvalues --   -0.70705  -0.70418  -0.70145  -0.70064  -0.69461
 Alpha  occ. eigenvalues --   -0.68891  -0.67718  -0.66378  -0.65879  -0.65315
 Alpha  occ. eigenvalues --   -0.64870  -0.64696  -0.63996  -0.63030  -0.62435
 Alpha  occ. eigenvalues --   -0.61855  -0.61310  -0.61235  -0.60981  -0.60023
 Alpha  occ. eigenvalues --   -0.59871  -0.59607  -0.59099  -0.58359  -0.57980
 Alpha  occ. eigenvalues --   -0.57677  -0.57414  -0.57095  -0.56939  -0.56765
 Alpha  occ. eigenvalues --   -0.56434  -0.56081  -0.55804  -0.55429  -0.55145
 Alpha  occ. eigenvalues --   -0.54543  -0.53753  -0.53674  -0.53171  -0.52665
 Alpha  occ. eigenvalues --   -0.52607  -0.52239  -0.51958  -0.51565  -0.51204
 Alpha  occ. eigenvalues --   -0.51163  -0.50922  -0.50644  -0.50380  -0.50204
 Alpha  occ. eigenvalues --   -0.49496  -0.49350  -0.49128  -0.48701  -0.48477
 Alpha  occ. eigenvalues --   -0.48070  -0.47972  -0.47723  -0.47267  -0.47179
 Alpha  occ. eigenvalues --   -0.46894  -0.46749  -0.46505  -0.46314  -0.46120
 Alpha  occ. eigenvalues --   -0.45959  -0.45731  -0.45169  -0.44766  -0.44586
 Alpha  occ. eigenvalues --   -0.44365  -0.44168  -0.44085  -0.44015  -0.43733
 Alpha  occ. eigenvalues --   -0.43496  -0.43085  -0.42978  -0.42654  -0.41950
 Alpha  occ. eigenvalues --   -0.41758  -0.41572  -0.41355  -0.40986  -0.40719
 Alpha  occ. eigenvalues --   -0.40407  -0.40065  -0.40019  -0.39642  -0.39290
 Alpha  occ. eigenvalues --   -0.39022  -0.38496  -0.38271  -0.37801  -0.37559
 Alpha  occ. eigenvalues --   -0.37210  -0.37048  -0.35934  -0.35505  -0.35385
 Alpha  occ. eigenvalues --   -0.35369  -0.35110  -0.34971  -0.34896  -0.33777
 Alpha  occ. eigenvalues --   -0.32132  -0.32106  -0.30493  -0.30128  -0.29645
 Alpha  occ. eigenvalues --   -0.29131  -0.28501  -0.28240  -0.27478  -0.26862
 Alpha  occ. eigenvalues --   -0.25403
 Alpha virt. eigenvalues --   -0.13069  -0.11379  -0.11168  -0.08770  -0.07703
 Alpha virt. eigenvalues --   -0.06535  -0.05413  -0.04829  -0.04606  -0.03984
 Alpha virt. eigenvalues --   -0.03071  -0.02526  -0.02351  -0.01766  -0.01546

 Mulliken charges:
               1
     1  N   -0.747159
     2  H    0.412167
     3  H    0.420082
     4  H    0.418136
     5  C   -0.134340
     6  H    0.199880
     7  C    0.659576
     8  C    0.133031
     9  H    0.191719
    10  O   -0.529826
    11  C   -0.502087
    12  H    0.193139
    13  H    0.207339
    14  H    0.165261
    15  O   -0.631763
    16  H    0.422278
    17  N   -0.600999
    18  H    0.367198
    19  C   -0.061874
    20  H    0.204782
    21  C    0.638056
    22  C   -0.387871
    23  H    0.194644
    24  H    0.172859
    25  O   -0.550154
    26  C    0.162877
    27  C   -0.148113
    28  H    0.150667
    29  C   -0.216822
    30  H    0.196175
    31  C   -0.135437
    32  H    0.161720
    33  C   -0.204847
    34  H    0.158716
    35  C   -0.159853
    36  H    0.158211
    37  N   -0.596220
    38  H    0.347235
    39  C   -0.065821
    40  H    0.187853
    41  C    0.613630
    42  C   -0.469144
    43  H    0.191640
    44  H    0.180848
    45  H    0.159929
    46  O   -0.511632
    47  N   -0.611916
    48  H    0.363641
    49  C   -0.069547
    50  H    0.181333
    51  C    0.638319
    52  C   -0.279596
    53  H    0.168680
    54  H    0.142993
    55  O   -0.543708
    56  C   -0.371131
    57  H    0.224780
    58  H    0.184865
    59  C    0.585482
    60  O   -0.492392
    61  O   -0.548030
    62  N   -0.621707
    63  H    0.372326
    64  C   -0.033803
    65  H    0.174038
    66  C    0.608681
    67  C   -0.454315
    68  H    0.161884
    69  H    0.155554
    70  H    0.180259
    71  O   -0.534388
    72  N   -0.602758
    73  H    0.350983
    74  C   -0.075387
    75  H    0.181808
    76  C    0.615414
    77  C   -0.254750
    78  H    0.136551
    79  H    0.147608
    80  O   -0.566466
    81  C   -0.064357
    82  H    0.131020
    83  C   -0.444231
    84  H    0.143814
    85  H    0.136813
    86  H    0.140901
    87  C   -0.462781
    88  H    0.137205
    89  H    0.137482
    90  H    0.176311
    91  N   -0.622074
    92  H    0.359047
    93  C   -0.042455
    94  H    0.149233
    95  C    0.598097
    96  C   -0.300544
    97  H    0.169511
    98  H    0.163712
    99  O   -0.640991
   100  C   -0.284352
   101  H    0.145426
   102  H    0.180181
   103  C   -0.160848
   104  H    0.144068
   105  H    0.172990
   106  N   -0.627126
   107  H    0.427386
   108  N   -0.755399
   109  H    0.358466
   110  H    0.367698
   111  N   -0.774939
   112  H    0.418989
   113  H    0.348360
   114  C    0.768278
   115  O   -0.537357
   116  H    0.411470
 Sum of Mulliken charges =   1.00000

 Dipole moment (field-independent basis, Debye):
    X=            -14.6060    Y=            -14.9165    Z=            -14.3760  Tot=             25.3477
 Quadrupole moment (field-independent basis, Debye-Ang):
   XX=            167.2687   YY=           -278.2572   ZZ=           -262.6298
   XY=            175.6812   XZ=             93.3181   YZ=             52.9566

 Normal termination of Gaussian 16 at Thu Jun 30 14:49:07 2022.
