 Gaussian 16, Revision C.01,
 Gaussian 16:  ES64L-G16RevC.01  3-Jul-2019

 -------------------------------------------------------------------
 # B3LYP/6-31G* guess=read geom=check nosymm integral(ultrafinegrid)
 -------------------------------------------------------------------

 ------------------------------------------------------
 Candidate Structure: Conf:669 Charge calc in gas phase
 ------------------------------------------------------
 Structure from the checkpoint file:  "conf-669.chk"
 Charge =  1 Multiplicity = 1

                          Input orientation:
 ---------------------------------------------------------------------
 Center     Atomic      Atomic             Coordinates (Angstroms)
 Number     Number       Type             X           Y           Z
 ---------------------------------------------------------------------
      1          7           0       -0.904001   -4.258988    1.814049
      2          1           0       -1.674976   -4.423907    1.168869
      3          1           0       -0.079421   -4.664372    1.378709
      4          6           0       -0.714354   -2.827346    2.013686
      5          1           0       -1.640056   -2.449997    2.470441
      6          6           0       -0.464556   -2.034781    0.713033
      7          6           0        0.403186   -2.555697    3.054290
      8          1           0        0.377356   -1.488457    3.314469
      9          1           0        0.097002   -3.096663    3.959561
     10          8           0        0.250420   -2.454726   -0.191982
     11          6           0        1.828125   -2.933149    2.720285
     12          6           0        2.352684   -3.576463    1.623913
     13          1           0        1.866966   -3.887269    0.711785
     14          6           0        2.949929   -2.665211    3.593205
     15          6           0        4.119514   -3.177661    2.962846
     16          6           0        3.087338   -1.992181    4.820921
     17          1           0        2.217657   -1.584100    5.327274
     18          7           0        3.719834   -3.729779    1.768336
     19          1           0        4.319876   -4.191188    1.102307
     20          6           0        5.500707   -2.367279    4.731815
     21          1           0        6.475944   -2.251033    5.196369
     22          6           0        5.394764   -3.045945    3.522895
     23          1           0        6.272955   -3.453495    3.028966
     24          6           0        4.358151   -1.836762    5.372290
     25          1           0        4.470533   -1.328680    6.326401
     26          7           0       -1.046844   -0.794055    0.647841
     27          1           0       -1.778349   -0.569702    1.308065
     28          6           0       -0.830612    0.115937   -0.487441
     29          1           0       -1.337899    1.048191   -0.201812
     30          6           0        0.686288    0.445269   -0.567541
     31          6           0       -1.407705   -0.344101   -1.851625
     32          1           0       -0.691386   -1.048623   -2.285496
     33          8           0        1.335045    0.470164   -1.605048
     34          6           0       -1.528709    0.876265   -2.793372
     35          1           0       -2.348732    1.519463   -2.437496
     36          1           0       -0.609503    1.467154   -2.729308
     37          6           0       -2.758549   -1.051770   -1.676283
     38          1           0       -3.493632   -0.401129   -1.182824
     39          1           0       -3.173184   -1.334750   -2.648145
     40          1           0       -2.664850   -1.968134   -1.086470
     41          6           0       -1.763311    0.511237   -4.263518
     42          1           0       -1.808388    1.413481   -4.883714
     43          1           0       -2.701369   -0.033772   -4.413688
     44          1           0       -0.947082   -0.113926   -4.643943
     45          7           0        1.238891    0.768883    0.643620
     46          1           0        0.698627    0.597630    1.483605
     47          6           0        2.676016    0.761990    0.837560
     48          1           0        3.114798   -0.083725    0.291766
     49          6           0        2.913683    0.539798    2.331670
     50          6           0        3.322218    2.064011    0.300778
     51          1           0        2.889962    2.206939   -0.695461
     52          1           0        2.999555    2.903904    0.930868
     53          8           0        2.041793    0.633198    3.170148
     54          6           0        4.850639    2.010920    0.183625
     55          1           0        5.141165    1.129747   -0.402475
     56          1           0        5.307240    1.879493    1.172690
     57          6           0        5.442167    3.230054   -0.534649
     58          1           0        6.523604    3.131615   -0.675296
     59          1           0        5.002150    3.336607   -1.530066
     60          7           0        5.200367    4.517859    0.153850
     61          1           0        4.341583    5.006085   -0.066464
     62          7           0        6.949438    4.332851    1.673756
     63          1           0        7.673081    4.778972    2.219592
     64          1           0        6.978586    3.326713    1.590238
     65          7           0        5.773278    6.317736    1.499696
     66          1           0        5.219549    6.959499    0.949806
     67          1           0        6.156270    6.663499    2.368323
     68          6           0        5.966260    5.046393    1.107261
     69          8           0        4.189849    0.226058    2.611879
     70          1           0        4.220002   -0.095425    3.542418
 ---------------------------------------------------------------------

 SCF Done:  E(RB3LYP) =  -1582.13526899     A.U. after    3 cycles

 Alpha  occ. eigenvalues --  -19.28562 -19.23381 -19.19054 -19.18583 -14.55007
 Alpha  occ. eigenvalues --  -14.54954 -14.54923 -14.44112 -14.43566 -14.43122
 Alpha  occ. eigenvalues --  -14.37426 -10.51361 -10.41403 -10.37790 -10.36121
 Alpha  occ. eigenvalues --  -10.35154 -10.33134 -10.31639 -10.30588 -10.30010
 Alpha  occ. eigenvalues --  -10.29139 -10.28352 -10.27628 -10.25641 -10.25593
 Alpha  occ. eigenvalues --  -10.25260 -10.25255 -10.24939 -10.24722 -10.24554
 Alpha  occ. eigenvalues --  -10.24545 -10.23239 -10.22965 -10.22192  -1.19711
 Alpha  occ. eigenvalues --   -1.19633  -1.11325  -1.10767  -1.10152  -1.08823
 Alpha  occ. eigenvalues --   -1.07890  -1.04074  -1.00761  -0.99050  -0.94924
 Alpha  occ. eigenvalues --   -0.92778  -0.90404  -0.87295  -0.86428  -0.85886
 Alpha  occ. eigenvalues --   -0.82875  -0.81148  -0.80118  -0.79795  -0.78776
 Alpha  occ. eigenvalues --   -0.77380  -0.77308  -0.76214  -0.74839  -0.72304
 Alpha  occ. eigenvalues --   -0.71366  -0.69878  -0.68622  -0.68596  -0.68055
 Alpha  occ. eigenvalues --   -0.67606  -0.66212  -0.65477  -0.65237  -0.63012
 Alpha  occ. eigenvalues --   -0.62167  -0.61907  -0.61180  -0.60359  -0.59357
 Alpha  occ. eigenvalues --   -0.59143  -0.58033  -0.58011  -0.56526  -0.56066
 Alpha  occ. eigenvalues --   -0.55394  -0.54601  -0.53790  -0.53486  -0.53039
 Alpha  occ. eigenvalues --   -0.52742  -0.52100  -0.51454  -0.50887  -0.50544
 Alpha  occ. eigenvalues --   -0.50077  -0.49513  -0.49098  -0.48289  -0.48114
 Alpha  occ. eigenvalues --   -0.47767  -0.47387  -0.47056  -0.46530  -0.46199
 Alpha  occ. eigenvalues --   -0.45856  -0.45653  -0.45595  -0.44846  -0.43681
 Alpha  occ. eigenvalues --   -0.43483  -0.43226  -0.43163  -0.42788  -0.42416
 Alpha  occ. eigenvalues --   -0.41099  -0.40885  -0.40812  -0.40047  -0.39289
 Alpha  occ. eigenvalues --   -0.38961  -0.37985  -0.37478  -0.36998  -0.34529
 Alpha  occ. eigenvalues --   -0.33724  -0.33083  -0.32757  -0.31330  -0.29415
 Alpha  occ. eigenvalues --   -0.28837  -0.26488
 Alpha virt. eigenvalues --   -0.15300  -0.11068  -0.08954  -0.07448  -0.07430
 Alpha virt. eigenvalues --   -0.06548  -0.05652  -0.05562  -0.05144  -0.04287
 Alpha virt. eigenvalues --   -0.01928  -0.00779  -0.00006   0.00424   0.00629

 Mulliken charges:
               1
     1  N   -0.694899
     2  H    0.306795
     3  H    0.317080
     4  C   -0.087477
     5  H    0.134690
     6  C    0.610138
     7  C   -0.342645
     8  H    0.154455
     9  H    0.181993
    10  O   -0.520310
    11  C    0.063311
    12  C   -0.009800
    13  H    0.188569
    14  C    0.061054
    15  C    0.324793
    16  C   -0.224803
    17  H    0.142263
    18  N   -0.697471
    19  H    0.334300
    20  C   -0.158910
    21  H    0.131964
    22  C   -0.162679
    23  H    0.131629
    24  C   -0.185074
    25  H    0.133033
    26  N   -0.640836
    27  H    0.335525
    28  C   -0.044082
    29  H    0.155619
    30  C    0.632129
    31  C   -0.061006
    32  H    0.172699
    33  O   -0.526947
    34  C   -0.265345
    35  H    0.119520
    36  H    0.148050
    37  C   -0.461689
    38  H    0.129832
    39  H    0.162785
    40  H    0.145059
    41  C   -0.451381
    42  H    0.144989
    43  H    0.149698
    44  H    0.154928
    45  N   -0.625423
    46  H    0.355671
    47  C   -0.013467
    48  H    0.199701
    49  C    0.595962
    50  C   -0.282865
    51  H    0.193731
    52  H    0.132410
    53  O   -0.467679
    54  C   -0.286370
    55  H    0.189215
    56  H    0.158009
    57  C   -0.193829
    58  H    0.189260
    59  H    0.209354
    60  N   -0.582001
    61  H    0.372914
    62  N   -0.753073
    63  H    0.389130
    64  H    0.398931
    65  N   -0.759323
    66  H    0.389259
    67  H    0.389069
    68  C    0.825147
    69  O   -0.590747
    70  H    0.435469
 Sum of Mulliken charges =   1.00000

 Dipole moment (field-independent basis, Debye):
    X=             25.3395    Y=             20.5644    Z=              6.1221  Tot=             33.2033
 Quadrupole moment (field-independent basis, Debye-Ang):
   XX=            -13.8027   YY=            -71.5277   ZZ=           -191.7770
   XY=            118.9993   XZ=             38.7404   YZ=             32.1340

 Normal termination of Gaussian 16 at Thu May 26 00:20:53 2022.
