 Gaussian 16, Revision C.01,
 Gaussian 16:  ES64L-G16RevC.01  3-Jul-2019

 -------------------------------------------------------------------
 # B3LYP/6-31G* guess=read geom=check nosymm integral(ultrafinegrid)
 -------------------------------------------------------------------

 ------------------------------------------------------
 Candidate Structure: Conf:684 Charge calc in gas phase
 ------------------------------------------------------
 Structure from the checkpoint file:  "conf-684.chk"
 Charge =  1 Multiplicity = 1

                          Input orientation:
 ---------------------------------------------------------------------
 Center     Atomic      Atomic             Coordinates (Angstroms)
 Number     Number       Type             X           Y           Z
 ---------------------------------------------------------------------
      1          7           0        0.355515   -3.799496   -0.229110
      2          1           0        1.099965   -4.027790   -0.887161
      3          1           0       -0.007985   -4.679084    0.134467
      4          6           0        0.922183   -3.003724    0.863671
      5          1           0        0.096946   -2.725803    1.530421
      6          6           0        1.477500   -1.745398    0.186674
      7          6           0        2.018896   -3.695182    1.716165
      8          1           0        1.619494   -4.663772    2.047134
      9          1           0        2.876875   -3.906782    1.066723
     10          8           0        2.330850   -1.812483   -0.694664
     11          6           0        2.434214   -2.859739    2.890845
     12          6           0        3.568666   -2.093335    2.991321
     13          1           0        4.396755   -2.005154    2.301897
     14          6           0        1.672320   -2.612081    4.093365
     15          6           0        2.412624   -1.681968    4.875485
     16          6           0        0.442910   -3.085546    4.587778
     17          1           0       -0.138966   -3.811427    4.024486
     18          7           0        3.572938   -1.398309    4.184334
     19          1           0        4.233327   -0.670000    4.409790
     20          6           0        0.731135   -1.691934    6.566294
     21          1           0        0.347323   -1.349323    7.522984
     22          6           0        1.953428   -1.212311    6.111022
     23          1           0        2.532396   -0.503047    6.696554
     24          6           0       -0.015905   -2.622346    5.814128
     25          1           0       -0.962198   -2.984142    6.206132
     26          7           0        0.963606   -0.541814    0.594832
     27          1           0        0.186736   -0.568587    1.241914
     28          6           0        1.058705    0.646365   -0.257366
     29          1           0        0.752563    1.484652    0.380690
     30          6           0        2.536465    0.912039   -0.625838
     31          6           0        0.137651    0.611971   -1.511224
     32          1           0        0.680516    0.050966   -2.280227
     33          8           0        2.901252    1.165147   -1.782208
     34          6           0       -0.114013    2.036439   -2.068528
     35          1           0        0.850021    2.527397   -2.245472
     36          1           0       -0.583587    1.923751   -3.055270
     37          6           0       -1.182480   -0.129555   -1.241856
     38          1           0       -1.724511    0.280629   -0.380813
     39          1           0       -1.842045   -0.035714   -2.111949
     40          1           0       -1.021576   -1.197500   -1.067711
     41          6           0       -1.001103    2.953013   -1.214021
     42          1           0       -1.100211    3.934677   -1.689832
     43          1           0       -0.589148    3.124741   -0.211825
     44          1           0       -2.010113    2.546956   -1.091386
     45          7           0        3.400012    0.976173    0.409758
     46          1           0        3.098169    0.658028    1.326415
     47          6           0        4.838870    1.115945    0.221656
     48          1           0        5.214241    0.261992   -0.360770
     49          6           0        5.489618    0.999029    1.597731
     50          6           0        5.263265    2.432255   -0.505755
     51          1           0        4.436566    3.142133   -0.397545
     52          1           0        6.116571    2.869089    0.018533
     53          8           0        4.889231    0.852016    2.641183
     54          6           0        5.629604    2.233641   -1.997136
     55          1           0        5.342193    1.228665   -2.315141
     56          1           0        6.713976    2.316954   -2.138263
     57          6           0        4.915425    3.243929   -2.905079
     58          1           0        3.846916    3.258947   -2.681272
     59          1           0        5.295172    4.259131   -2.755475
     60          7           0        5.070117    2.944875   -4.338664
     61          1           0        5.939491    3.222005   -4.776127
     62          7           0        3.268584    1.467574   -4.507611
     63          1           0        2.586607    1.017631   -5.101957
     64          1           0        3.142325    1.347718   -3.491981
     65          7           0        4.502386    2.036039   -6.385691
     66          1           0        5.033377    2.737313   -6.881329
     67          1           0        4.007402    1.356644   -6.944639
     68          6           0        4.272341    2.144010   -5.058636
     69          8           0        6.828888    1.053244    1.508353
     70          1           0        7.188829    0.964232    2.411745
 ---------------------------------------------------------------------

 SCF Done:  E(RB3LYP) =  -1582.15723586     A.U. after    1 cycles

 Alpha  occ. eigenvalues --  -19.30948 -19.25735 -19.23155 -19.20114 -14.52324
 Alpha  occ. eigenvalues --  -14.52268 -14.50809 -14.46386 -14.44860 -14.43355
 Alpha  occ. eigenvalues --  -14.38697 -10.48401 -10.43679 -10.40067 -10.36744
 Alpha  occ. eigenvalues --  -10.35568 -10.35316 -10.32921 -10.30453 -10.30362
 Alpha  occ. eigenvalues --  -10.29487 -10.27656 -10.27514 -10.27332 -10.26435
 Alpha  occ. eigenvalues --  -10.25506 -10.25272 -10.24884 -10.24225 -10.24080
 Alpha  occ. eigenvalues --  -10.24009 -10.23910 -10.23681 -10.23298  -1.22125
 Alpha  occ. eigenvalues --   -1.16726  -1.14780  -1.13225  -1.11887  -1.06168
 Alpha  occ. eigenvalues --   -1.04567  -1.03382  -1.03296  -1.00988  -0.95841
 Alpha  occ. eigenvalues --   -0.91824  -0.89139  -0.89044  -0.87386  -0.85884
 Alpha  occ. eigenvalues --   -0.82621  -0.81378  -0.79978  -0.79012  -0.78685
 Alpha  occ. eigenvalues --   -0.77914  -0.76681  -0.74248  -0.73442  -0.72928
 Alpha  occ. eigenvalues --   -0.72642  -0.70620  -0.70324  -0.68326  -0.67684
 Alpha  occ. eigenvalues --   -0.66974  -0.65671  -0.64766  -0.64675  -0.64353
 Alpha  occ. eigenvalues --   -0.61899  -0.61282  -0.60932  -0.60564  -0.60468
 Alpha  occ. eigenvalues --   -0.59199  -0.58730  -0.58398  -0.57947  -0.57496
 Alpha  occ. eigenvalues --   -0.56622  -0.55645  -0.54263  -0.53971  -0.53576
 Alpha  occ. eigenvalues --   -0.52821  -0.52433  -0.52274  -0.51718  -0.51283
 Alpha  occ. eigenvalues --   -0.50813  -0.50797  -0.50188  -0.49410  -0.48582
 Alpha  occ. eigenvalues --   -0.48455  -0.47983  -0.47584  -0.47313  -0.47128
 Alpha  occ. eigenvalues --   -0.46355  -0.46011  -0.45807  -0.45328  -0.45239
 Alpha  occ. eigenvalues --   -0.44933  -0.44102  -0.43588  -0.43133  -0.42867
 Alpha  occ. eigenvalues --   -0.42789  -0.41320  -0.40896  -0.40666  -0.40534
 Alpha  occ. eigenvalues --   -0.40249  -0.39115  -0.38862  -0.38388  -0.37340
 Alpha  occ. eigenvalues --   -0.36453  -0.34423  -0.33517  -0.33100  -0.30709
 Alpha  occ. eigenvalues --   -0.27646  -0.25752
 Alpha virt. eigenvalues --   -0.12255  -0.10728  -0.08753  -0.08622  -0.06665
 Alpha virt. eigenvalues --   -0.06304  -0.04671  -0.03899  -0.03112  -0.02833
 Alpha virt. eigenvalues --   -0.01590  -0.00982  -0.00084   0.00069   0.00537

 Mulliken charges:
               1
     1  N   -0.716015
     2  H    0.316233
     3  H    0.311160
     4  C   -0.064610
     5  H    0.144252
     6  C    0.647638
     7  C   -0.361570
     8  H    0.150209
     9  H    0.154590
    10  O   -0.543196
    11  C    0.059605
    12  C   -0.006947
    13  H    0.137396
    14  C    0.072091
    15  C    0.308350
    16  C   -0.216428
    17  H    0.122313
    18  N   -0.683932
    19  H    0.339568
    20  C   -0.151324
    21  H    0.135190
    22  C   -0.163478
    23  H    0.130002
    24  C   -0.140043
    25  H    0.131756
    26  N   -0.617635
    27  H    0.346936
    28  C   -0.062709
    29  H    0.171089
    30  C    0.669719
    31  C   -0.062052
    32  H    0.142517
    33  O   -0.584675
    34  C   -0.275756
    35  H    0.127143
    36  H    0.136363
    37  C   -0.486850
    38  H    0.141945
    39  H    0.156351
    40  H    0.184209
    41  C   -0.457401
    42  H    0.156208
    43  H    0.142454
    44  H    0.165211
    45  N   -0.618535
    46  H    0.376099
    47  C   -0.002348
    48  H    0.206613
    49  C    0.569612
    50  C   -0.292236
    51  H    0.171740
    52  H    0.185896
    53  O   -0.465104
    54  C   -0.257079
    55  H    0.169058
    56  H    0.156291
    57  C   -0.184812
    58  H    0.201258
    59  H    0.187960
    60  N   -0.598747
    61  H    0.360668
    62  N   -0.793527
    63  H    0.370401
    64  H    0.465452
    65  N   -0.768829
    66  H    0.379453
    67  H    0.380465
    68  C    0.816955
    69  O   -0.554769
    70  H    0.432192
 Sum of Mulliken charges =   1.00000

 Dipole moment (field-independent basis, Debye):
    X=             20.2330    Y=              9.1734    Z=            -14.5258  Tot=             26.5429
 Quadrupole moment (field-independent basis, Debye-Ang):
   XX=            -79.9009   YY=           -165.7109   ZZ=            -80.4366
   XY=             52.4591   XZ=            -64.8210   YZ=            -37.5828

 Normal termination of Gaussian 16 at Thu May 26 00:22:43 2022.
