 Gaussian 16, Revision C.01,
 Gaussian 16:  ES64L-G16RevC.01  3-Jul-2019

 -------------------------------------------------------------------
 # B3LYP/6-31G* guess=read geom=check nosymm integral(ultrafinegrid)
 -------------------------------------------------------------------

 ------------------------------------------------------
 Candidate Structure: Conf:433 Charge calc in gas phase
 ------------------------------------------------------
 Structure from the checkpoint file:  "conf-433.chk"
 Charge =  1 Multiplicity = 1

                          Input orientation:
 ---------------------------------------------------------------------
 Center     Atomic      Atomic             Coordinates (Angstroms)
 Number     Number       Type             X           Y           Z
 ---------------------------------------------------------------------
      1          7           0        0.773878   -4.010153    1.936930
      2          1           0        0.448057   -4.533050    1.125461
      3          1           0        1.752725   -3.793890    1.744160
      4          6           0        0.049263   -2.749045    2.039990
      5          1           0       -1.017955   -2.953452    1.886253
      6          6           0        0.509736   -1.731499    0.979386
      7          6           0        0.220778   -2.157042    3.470271
      8          1           0        1.295688   -2.150467    3.691366
      9          1           0       -0.086986   -1.105102    3.474477
     10          8           0        1.586012   -1.823784    0.395054
     11          6           0       -0.555060   -2.904492    4.515304
     12          6           0       -0.331151   -4.183436    4.965814
     13          1           0        0.425680   -4.890708    4.660434
     14          6           0       -1.719914   -2.422182    5.218440
     15          6           0       -2.150774   -3.465167    6.085291
     16          6           0       -2.441190   -1.214611    5.210470
     17          1           0       -2.134876   -0.390072    4.569811
     18          7           0       -1.282021   -4.522183    5.907318
     19          1           0       -1.334767   -5.408755    6.384479
     20          6           0       -3.956338   -2.129240    6.886187
     21          1           0       -4.825233   -1.993850    7.523800
     22          6           0       -3.263232   -3.333333    6.922731
     23          1           0       -3.575328   -4.141986    7.578450
     24          6           0       -3.548286   -1.078946    6.038178
     25          1           0       -4.110022   -0.148856    6.038208
     26          7           0       -0.327452   -0.661981    0.753237
     27          1           0       -1.261059   -0.707967    1.141360
     28          6           0       -0.130555    0.236820   -0.390492
     29          1           0       -0.777385    1.100439   -0.189681
     30          6           0        1.321393    0.768079   -0.361099
     31          6           0       -0.517865   -0.363828   -1.770443
     32          1           0        0.332692   -0.971154   -2.098677
     33          8           0        2.032694    0.846597   -1.374403
     34          6           0       -0.733314    0.739034   -2.838612
     35          1           0        0.173131    1.350295   -2.905952
     36          1           0       -0.834562    0.233290   -3.808275
     37          6           0       -1.745516   -1.283432   -1.668611
     38          1           0       -2.605877   -0.786024   -1.204446
     39          1           0       -2.055580   -1.604992   -2.668858
     40          1           0       -1.529109   -2.186191   -1.090062
     41          6           0       -1.950260    1.654264   -2.640197
     42          1           0       -2.022111    2.372135   -3.464728
     43          1           0       -1.892682    2.239008   -1.713832
     44          1           0       -2.888990    1.091551   -2.619606
     45          7           0        1.737388    1.232534    0.845289
     46          1           0        1.182356    0.974010    1.657773
     47          6           0        3.150891    1.421574    1.131763
     48          1           0        3.728934    0.809596    0.430356
     49          6           0        3.409945    0.870248    2.534058
     50          6           0        3.600292    2.897710    1.039173
     51          1           0        2.998362    3.493568    1.734647
     52          1           0        4.638684    2.970156    1.383888
     53          8           0        2.541203    0.511464    3.297604
     54          6           0        3.462007    3.483730   -0.372305
     55          1           0        3.591664    4.571965   -0.315089
     56          1           0        2.454240    3.300800   -0.758778
     57          6           0        4.493117    2.902259   -1.345191
     58          1           0        5.512064    3.121562   -1.008012
     59          1           0        4.403552    1.816698   -1.412618
     60          7           0        4.367774    3.441359   -2.706715
     61          1           0        4.655784    4.401070   -2.851477
     62          7           0        3.135420    1.680241   -3.599293
     63          1           0        2.890695    1.127548   -4.408823
     64          1           0        2.763644    1.367158   -2.692662
     65          7           0        3.970733    3.350878   -4.981389
     66          1           0        4.714196    4.005306   -5.178104
     67          1           0        3.447311    2.999218   -5.769905
     68          6           0        3.818744    2.814907   -3.751604
     69          8           0        4.721921    0.850691    2.823235
     70          1           0        4.815250    0.501662    3.731065
 ---------------------------------------------------------------------

 SCF Done:  E(RB3LYP) =  -1582.15911626     A.U. after    1 cycles

 Alpha  occ. eigenvalues --  -19.30138 -19.24736 -19.24046 -19.20841 -14.52339
 Alpha  occ. eigenvalues --  -14.52210 -14.50066 -14.46520 -14.45502 -14.42428
 Alpha  occ. eigenvalues --  -14.38164 -10.48186 -10.42724 -10.40823 -10.36999
 Alpha  occ. eigenvalues --  -10.35660 -10.34771 -10.33639 -10.30654 -10.30378
 Alpha  occ. eigenvalues --  -10.29584 -10.28145 -10.27005 -10.26177 -10.26118
 Alpha  occ. eigenvalues --  -10.25981 -10.25931 -10.25367 -10.23191 -10.23124
 Alpha  occ. eigenvalues --  -10.22860 -10.22711 -10.22637 -10.22426  -1.21208
 Alpha  occ. eigenvalues --   -1.16622  -1.15414  -1.12486  -1.12371  -1.06152
 Alpha  occ. eigenvalues --   -1.04397  -1.03689  -1.02245  -1.01431  -0.95688
 Alpha  occ. eigenvalues --   -0.92246  -0.89749  -0.88110  -0.87272  -0.84834
 Alpha  occ. eigenvalues --   -0.83058  -0.81516  -0.80169  -0.78975  -0.77927
 Alpha  occ. eigenvalues --   -0.77735  -0.75839  -0.74274  -0.73099  -0.72831
 Alpha  occ. eigenvalues --   -0.72537  -0.70644  -0.70072  -0.69022  -0.67392
 Alpha  occ. eigenvalues --   -0.66467  -0.66098  -0.64843  -0.64678  -0.63541
 Alpha  occ. eigenvalues --   -0.61723  -0.61378  -0.60947  -0.60522  -0.59449
 Alpha  occ. eigenvalues --   -0.58916  -0.58274  -0.57867  -0.57621  -0.56957
 Alpha  occ. eigenvalues --   -0.56644  -0.55121  -0.54880  -0.54547  -0.53537
 Alpha  occ. eigenvalues --   -0.52987  -0.52389  -0.52070  -0.51512  -0.51365
 Alpha  occ. eigenvalues --   -0.50569  -0.50506  -0.50300  -0.49284  -0.48916
 Alpha  occ. eigenvalues --   -0.48089  -0.47686  -0.47494  -0.47193  -0.46809
 Alpha  occ. eigenvalues --   -0.46558  -0.46410  -0.46035  -0.45786  -0.45165
 Alpha  occ. eigenvalues --   -0.44775  -0.43765  -0.42735  -0.42646  -0.42257
 Alpha  occ. eigenvalues --   -0.41950  -0.41604  -0.41492  -0.40964  -0.40538
 Alpha  occ. eigenvalues --   -0.39651  -0.38637  -0.37987  -0.37882  -0.37589
 Alpha  occ. eigenvalues --   -0.37016  -0.35064  -0.34234  -0.31886  -0.30736
 Alpha  occ. eigenvalues --   -0.26514  -0.24540
 Alpha virt. eigenvalues --   -0.12228  -0.09840  -0.09419  -0.08369  -0.07004
 Alpha virt. eigenvalues --   -0.05304  -0.04576  -0.03676  -0.02383  -0.02024
 Alpha virt. eigenvalues --   -0.01621  -0.01299   0.00243   0.00450   0.00777

 Mulliken charges:
               1
     1  N   -0.690024
     2  H    0.306061
     3  H    0.312622
     4  C   -0.090372
     5  H    0.153287
     6  C    0.591811
     7  C   -0.347735
     8  H    0.162158
     9  H    0.145067
    10  O   -0.524374
    11  C    0.063997
    12  C    0.021195
    13  H    0.167102
    14  C    0.076595
    15  C    0.313556
    16  C   -0.214351
    17  H    0.100200
    18  N   -0.690011
    19  H    0.332330
    20  C   -0.152756
    21  H    0.131058
    22  C   -0.159741
    23  H    0.129952
    24  C   -0.137646
    25  H    0.121217
    26  N   -0.628825
    27  H    0.343830
    28  C   -0.048171
    29  H    0.171939
    30  C    0.650798
    31  C   -0.065965
    32  H    0.157884
    33  O   -0.586640
    34  C   -0.276446
    35  H    0.123881
    36  H    0.141459
    37  C   -0.471224
    38  H    0.146720
    39  H    0.163655
    40  H    0.154370
    41  C   -0.458599
    42  H    0.155223
    43  H    0.142057
    44  H    0.165812
    45  N   -0.586926
    46  H    0.373000
    47  C   -0.053397
    48  H    0.202720
    49  C    0.595288
    50  C   -0.278451
    51  H    0.172350
    52  H    0.176054
    53  O   -0.453235
    54  C   -0.267093
    55  H    0.155795
    56  H    0.168105
    57  C   -0.167412
    58  H    0.186803
    59  H    0.197695
    60  N   -0.601650
    61  H    0.359609
    62  N   -0.789703
    63  H    0.367037
    64  H    0.466472
    65  N   -0.765920
    66  H    0.378286
    67  H    0.379781
    68  C    0.807756
    69  O   -0.559699
    70  H    0.433778
 Sum of Mulliken charges =   1.00000

 Dipole moment (field-independent basis, Debye):
    X=             14.0025    Y=              9.6835    Z=            -10.2422  Tot=             19.8681
 Quadrupole moment (field-independent basis, Debye-Ang):
   XX=           -123.3289   YY=           -133.9645   ZZ=           -115.4434
   XY=             56.1490   XZ=            -42.0367   YZ=            -55.1383

 Normal termination of Gaussian 16 at Thu May 26 00:20:21 2022.
