 Gaussian 16, Revision C.01,
 Gaussian 16:  ES64L-G16RevC.01  3-Jul-2019

 -------------------------------------------------------------------
 # B3LYP/6-31G* guess=read geom=check nosymm integral(ultrafinegrid)
 -------------------------------------------------------------------

 ------------------------------------------------------
 Candidate Structure: Conf:474 Charge calc in gas phase
 ------------------------------------------------------
 Structure from the checkpoint file:  "conf-474.chk"
 Charge =  1 Multiplicity = 1

                          Input orientation:
 ---------------------------------------------------------------------
 Center     Atomic      Atomic             Coordinates (Angstroms)
 Number     Number       Type             X           Y           Z
 ---------------------------------------------------------------------
      1          7           0       -1.113654   -1.198853    3.229963
      2          1           0       -1.529049   -1.810072    3.930975
      3          1           0       -0.993622   -0.290993    3.675911
      4          6           0        0.184825   -1.736892    2.805464
      5          1           0        1.006883   -1.482207    3.490964
      6          6           0        0.593419   -1.178266    1.433477
      7          6           0        0.138512   -3.285623    2.701899
      8          1           0       -0.639262   -3.561127    1.977298
      9          1           0        1.095248   -3.604892    2.277021
     10          8           0        1.730575   -1.326346    0.989661
     11          6           0       -0.115735   -3.979537    4.010136
     12          6           0        0.836061   -4.408782    4.904150
     13          1           0        1.914781   -4.358902    4.837157
     14          6           0       -1.396586   -4.318227    4.589547
     15          6           0       -1.139924   -4.947242    5.839871
     16          6           0       -2.733469   -4.167607    4.171872
     17          1           0       -2.965423   -3.699312    3.218418
     18          7           0        0.229765   -4.980605    6.004077
     19          1           0        0.714524   -5.409266    6.777392
     20          6           0       -3.472845   -5.246240    6.229204
     21          1           0       -4.292477   -5.599479    6.848224
     22          6           0       -2.165292   -5.414421    6.668638
     23          1           0       -1.949173   -5.893678    7.619767
     24          6           0       -3.754275   -4.630145    4.992369
     25          1           0       -4.787972   -4.520831    4.676792
     26          7           0       -0.394724   -0.511576    0.766113
     27          1           0       -1.305770   -0.570694    1.216241
     28          6           0       -0.304574   -0.169979   -0.656782
     29          1           0       -1.055760    0.615405   -0.814491
     30          6           0        1.072278    0.479660   -0.930617
     31          6           0       -0.607391   -1.348429   -1.621891
     32          1           0        0.288944   -1.979446   -1.634563
     33          8           0        1.780318    0.193272   -1.886465
     34          6           0       -0.844052   -0.869038   -3.076936
     35          1           0        0.041716   -0.325097   -3.415942
     36          1           0       -0.908093   -1.768043   -3.704166
     37          6           0       -1.786780   -2.197753   -1.120610
     38          1           0       -2.694487   -1.600751   -0.967624
     39          1           0       -2.026412   -2.974253   -1.855385
     40          1           0       -1.556911   -2.700220   -0.176636
     41          6           0       -2.099482   -0.018395   -3.319494
     42          1           0       -2.170907    0.253631   -4.378534
     43          1           0       -2.090564    0.919662   -2.749786
     44          1           0       -3.019539   -0.552848   -3.059896
     45          7           0        1.405297    1.492392   -0.050476
     46          1           0        0.883833    1.477857    0.819008
     47          6           0        2.817486    1.837864    0.093116
     48          1           0        3.395266    0.902975    0.182660
     49          6           0        3.076256    2.604834    1.386391
     50          6           0        3.376880    2.611068   -1.115109
     51          1           0        4.444836    2.771084   -0.930360
     52          1           0        3.249971    1.931839   -1.966258
     53          8           0        3.968422    3.410662    1.533249
     54          6           0        2.678612    3.945887   -1.392720
     55          1           0        2.861463    4.644786   -0.567767
     56          1           0        1.594645    3.789827   -1.446099
     57          6           0        3.101844    4.595356   -2.713424
     58          1           0        2.894484    3.942570   -3.566737
     59          1           0        2.546412    5.522943   -2.882598
     60          7           0        4.535573    4.958963   -2.771524
     61          1           0        4.815708    5.776768   -2.243425
     62          7           0        5.319928    3.040936   -3.836739
     63          1           0        5.962447    2.619795   -4.492834
     64          1           0        4.593780    2.454404   -3.446576
     65          7           0        6.695814    4.885518   -3.605447
     66          1           0        6.807056    5.885393   -3.513600
     67          1           0        7.525087    4.342303   -3.800180
     68          6           0        5.507460    4.290863   -3.392923
     69          8           0        2.225078    2.259677    2.376929
     70          1           0        2.490078    2.766049    3.168950
 ---------------------------------------------------------------------

 SCF Done:  E(RB3LYP) =  -1582.14389171     A.U. after    2 cycles

 Alpha  occ. eigenvalues --  -19.29780 -19.23870 -19.19810 -19.18045 -14.53949
 Alpha  occ. eigenvalues --  -14.53909 -14.53612 -14.43615 -14.43171 -14.42491
 Alpha  occ. eigenvalues --  -14.38953 -10.50254 -10.42088 -10.36830 -10.36805
 Alpha  occ. eigenvalues --  -10.34774 -10.33403 -10.30573 -10.30349 -10.29451
 Alpha  occ. eigenvalues --  -10.28765 -10.27150 -10.26833 -10.25227 -10.25210
 Alpha  occ. eigenvalues --  -10.23691 -10.23572 -10.23561 -10.23509 -10.23428
 Alpha  occ. eigenvalues --  -10.23353 -10.23338 -10.23117 -10.22784  -1.20604
 Alpha  occ. eigenvalues --   -1.18550  -1.11795  -1.11532  -1.09683  -1.07744
 Alpha  occ. eigenvalues --   -1.06682  -1.02998  -1.00978  -0.99136  -0.95575
 Alpha  occ. eigenvalues --   -0.91887  -0.88610  -0.87116  -0.86423  -0.85122
 Alpha  occ. eigenvalues --   -0.82112  -0.80587  -0.79591  -0.78876  -0.78267
 Alpha  occ. eigenvalues --   -0.77042  -0.76130  -0.76044  -0.74394  -0.71991
 Alpha  occ. eigenvalues --   -0.71208  -0.69723  -0.68312  -0.67540  -0.67091
 Alpha  occ. eigenvalues --   -0.66991  -0.65746  -0.64343  -0.63966  -0.63018
 Alpha  occ. eigenvalues --   -0.61491  -0.60859  -0.60325  -0.60010  -0.58915
 Alpha  occ. eigenvalues --   -0.58678  -0.58171  -0.57259  -0.56982  -0.56210
 Alpha  occ. eigenvalues --   -0.55192  -0.54004  -0.53624  -0.53040  -0.52478
 Alpha  occ. eigenvalues --   -0.52342  -0.52160  -0.51581  -0.51000  -0.50557
 Alpha  occ. eigenvalues --   -0.49370  -0.49088  -0.48209  -0.47968  -0.47802
 Alpha  occ. eigenvalues --   -0.47369  -0.47126  -0.46776  -0.46368  -0.46032
 Alpha  occ. eigenvalues --   -0.45614  -0.45316  -0.44839  -0.44283  -0.44210
 Alpha  occ. eigenvalues --   -0.43512  -0.43114  -0.42654  -0.42184  -0.42106
 Alpha  occ. eigenvalues --   -0.41692  -0.41369  -0.39966  -0.39156  -0.38469
 Alpha  occ. eigenvalues --   -0.38160  -0.38124  -0.37966  -0.37488  -0.34522
 Alpha  occ. eigenvalues --   -0.33586  -0.33259  -0.32200  -0.31629  -0.30408
 Alpha  occ. eigenvalues --   -0.27133  -0.25250
 Alpha virt. eigenvalues --   -0.14360  -0.09854  -0.09067  -0.06292  -0.06075
 Alpha virt. eigenvalues --   -0.05733  -0.05319  -0.04557  -0.04372  -0.02414
 Alpha virt. eigenvalues --   -0.02014  -0.00918   0.00340   0.00925   0.01697

 Mulliken charges:
               1
     1  N   -0.773201
     2  H    0.339491
     3  H    0.308227
     4  C   -0.040166
     5  H    0.145473
     6  C    0.599007
     7  C   -0.379072
     8  H    0.164275
     9  H    0.178319
    10  O   -0.539450
    11  C    0.059785
    12  C    0.002344
    13  H    0.155493
    14  C    0.064545
    15  C    0.313869
    16  C   -0.221634
    17  H    0.130744
    18  N   -0.686967
    19  H    0.334452
    20  C   -0.150863
    21  H    0.135449
    22  C   -0.159658
    23  H    0.132575
    24  C   -0.138528
    25  H    0.130290
    26  N   -0.636918
    27  H    0.362998
    28  C   -0.042826
    29  H    0.160502
    30  C    0.630839
    31  C   -0.065354
    32  H    0.161446
    33  O   -0.524928
    34  C   -0.273616
    35  H    0.156873
    36  H    0.140869
    37  C   -0.476381
    38  H    0.142032
    39  H    0.158751
    40  H    0.156000
    41  C   -0.458041
    42  H    0.151247
    43  H    0.131372
    44  H    0.156608
    45  N   -0.622748
    46  H    0.359694
    47  C   -0.035615
    48  H    0.218698
    49  C    0.590544
    50  C   -0.309170
    51  H    0.151317
    52  H    0.177577
    53  O   -0.467153
    54  C   -0.266197
    55  H    0.169755
    56  H    0.186343
    57  C   -0.193468
    58  H    0.190021
    59  H    0.199820
    60  N   -0.580358
    61  H    0.369373
    62  N   -0.754867
    63  H    0.386064
    64  H    0.404953
    65  N   -0.759164
    66  H    0.386041
    67  H    0.387175
    68  C    0.817472
    69  O   -0.570388
    70  H    0.428013
 Sum of Mulliken charges =   1.00000

 Dipole moment (field-independent basis, Debye):
    X=             20.0206    Y=             16.4900    Z=             -6.6712  Tot=             26.7816
 Quadrupole moment (field-independent basis, Debye-Ang):
   XX=            -63.9538   YY=            -95.2418   ZZ=           -106.0678
   XY=             95.9382   XZ=            -72.8317   YZ=            -78.4053

 Normal termination of Gaussian 16 at Thu May 26 00:20:32 2022.
