 Gaussian 16, Revision C.01,
 Gaussian 16:  ES64L-G16RevC.01  3-Jul-2019

 -------------------------------------------------------------------
 # B3LYP/6-31G* guess=read geom=check nosymm integral(ultrafinegrid)
 -------------------------------------------------------------------

 ------------------------------------------------------
 Candidate Structure: Conf:948 Charge calc in gas phase
 ------------------------------------------------------
 Structure from the checkpoint file:  "conf-948.chk"
 Charge =  1 Multiplicity = 1

                          Input orientation:
 ---------------------------------------------------------------------
 Center     Atomic      Atomic             Coordinates (Angstroms)
 Number     Number       Type             X           Y           Z
 ---------------------------------------------------------------------
      1          7           0       -1.280262   -3.404887    1.232868
      2          1           0       -2.112321   -2.896088    0.940642
      3          1           0       -0.911553   -3.875169    0.406945
      4          6           0       -0.260016   -2.508904    1.796804
      5          1           0       -0.707427   -2.014753    2.669192
      6          6           0        0.164518   -1.432474    0.784593
      7          6           0        0.936357   -3.366466    2.249561
      8          1           0        0.522397   -4.143041    2.903565
      9          1           0        1.330958   -3.875826    1.362712
     10          8           0        1.107721   -1.553676    0.007790
     11          6           0        2.064524   -2.646921    2.933315
     12          6           0        3.330126   -2.492166    2.425864
     13          1           0        3.724146   -2.809455    1.470087
     14          6           0        2.084394   -2.058944    4.254670
     15          6           0        3.402930   -1.572788    4.480010
     16          6           0        1.129246   -1.906962    5.276395
     17          1           0        0.116973   -2.281518    5.146742
     18          7           0        4.134758   -1.829257    3.337117
     19          1           0        5.133581   -1.717922    3.251847
     20          6           0        2.809161   -0.813969    6.664162
     21          1           0        3.071094   -0.351538    7.611685
     22          6           0        3.781699   -0.953557    5.678048
     23          1           0        4.806264   -0.628171    5.846198
     24          6           0        1.495563   -1.285224    6.463252
     25          1           0        0.763422   -1.167867    7.256727
     26          7           0       -0.620337   -0.302103    0.755410
     27          1           0       -1.449633   -0.260843    1.332127
     28          6           0       -0.418738    0.740677   -0.253340
     29          1           0       -1.009293    1.593707    0.107439
     30          6           0        1.062883    1.203835   -0.181201
     31          6           0       -0.886387    0.415483   -1.709062
     32          1           0        0.011833    0.214715   -2.301739
     33          8           0        1.741867    1.455313   -1.192882
     34          6           0       -1.634114    1.618797   -2.331479
     35          1           0       -1.982882    1.316897   -3.327035
     36          1           0       -2.544633    1.805658   -1.742404
     37          6           0       -1.788192   -0.825533   -1.781437
     38          1           0       -2.701474   -0.702988   -1.185488
     39          1           0       -2.097619   -0.993384   -2.818453
     40          1           0       -1.270672   -1.726355   -1.443862
     41          6           0       -0.851963    2.929509   -2.470905
     42          1           0       -1.477297    3.695519   -2.942139
     43          1           0        0.039975    2.796839   -3.093217
     44          1           0       -0.526411    3.330665   -1.503367
     45          7           0        1.496439    1.419515    1.077108
     46          1           0        0.847548    1.175802    1.821777
     47          6           0        2.876435    1.446767    1.562169
     48          1           0        3.333155    0.461856    1.386439
     49          6           0        2.757412    1.573006    3.085436
     50          6           0        3.805506    2.499090    0.920169
     51          1           0        4.750538    2.476536    1.470549
     52          1           0        4.026721    2.142374   -0.088711
     53          8           0        1.701935    1.571334    3.679587
     54          6           0        3.245619    3.937891    0.866707
     55          1           0        3.627180    4.539764    1.697531
     56          1           0        2.153479    3.925821    0.970592
     57          6           0        3.593910    4.651289   -0.448383
     58          1           0        3.198905    5.674382   -0.440250
     59          1           0        4.681527    4.703286   -0.587436
     60          7           0        3.000652    3.885889   -1.555633
     61          1           0        2.405439    3.088387   -1.288887
     62          7           0        4.214434    4.787727   -3.329832
     63          1           0        4.661726    4.672460   -4.227333
     64          1           0        4.364246    5.656985   -2.839978
     65          7           0        3.077427    2.769626   -3.563613
     66          1           0        2.544188    2.022349   -3.124775
     67          1           0        3.083907    2.821179   -4.572067
     68          6           0        3.428551    3.828356   -2.811134
     69          8           0        3.957424    1.633158    3.681151
     70          1           0        3.798932    1.528158    4.641884
 ---------------------------------------------------------------------

 SCF Done:  E(RB3LYP) =  -1582.15495861     A.U. after    1 cycles

 Alpha  occ. eigenvalues --  -19.29602 -19.24283 -19.24085 -19.20687 -14.52271
 Alpha  occ. eigenvalues --  -14.50951 -14.50260 -14.46615 -14.45774 -14.44878
 Alpha  occ. eigenvalues --  -14.39981 -10.47712 -10.42346 -10.40831 -10.37158
 Alpha  occ. eigenvalues --  -10.36020 -10.34955 -10.33789 -10.31028 -10.30409
 Alpha  occ. eigenvalues --  -10.30362 -10.28700 -10.28509 -10.28049 -10.27017
 Alpha  occ. eigenvalues --  -10.26686 -10.25806 -10.25793 -10.25749 -10.25206
 Alpha  occ. eigenvalues --  -10.25145 -10.25079 -10.24937 -10.24440  -1.20799
 Alpha  occ. eigenvalues --   -1.16360  -1.15141  -1.12448  -1.12006  -1.05518
 Alpha  occ. eigenvalues --   -1.04635  -1.04497  -1.03979  -1.01428  -0.96929
 Alpha  occ. eigenvalues --   -0.91982  -0.90376  -0.89728  -0.87599  -0.86673
 Alpha  occ. eigenvalues --   -0.83018  -0.81178  -0.81088  -0.79982  -0.79654
 Alpha  occ. eigenvalues --   -0.78231  -0.77844  -0.74126  -0.73164  -0.72933
 Alpha  occ. eigenvalues --   -0.72463  -0.70632  -0.69992  -0.68869  -0.68068
 Alpha  occ. eigenvalues --   -0.67097  -0.65837  -0.65311  -0.64986  -0.64530
 Alpha  occ. eigenvalues --   -0.63297  -0.61864  -0.61361  -0.61112  -0.60476
 Alpha  occ. eigenvalues --   -0.60027  -0.58600  -0.58421  -0.57810  -0.56771
 Alpha  occ. eigenvalues --   -0.56685  -0.55662  -0.54977  -0.54691  -0.54311
 Alpha  occ. eigenvalues --   -0.53512  -0.53240  -0.53086  -0.52536  -0.52186
 Alpha  occ. eigenvalues --   -0.51200  -0.50564  -0.50264  -0.49968  -0.49505
 Alpha  occ. eigenvalues --   -0.49365  -0.49152  -0.48852  -0.48515  -0.47499
 Alpha  occ. eigenvalues --   -0.46942  -0.46640  -0.46035  -0.45888  -0.45334
 Alpha  occ. eigenvalues --   -0.44785  -0.44461  -0.43932  -0.43368  -0.42875
 Alpha  occ. eigenvalues --   -0.42446  -0.41935  -0.41676  -0.41377  -0.40757
 Alpha  occ. eigenvalues --   -0.40293  -0.39913  -0.39709  -0.38469  -0.37890
 Alpha  occ. eigenvalues --   -0.36871  -0.36058  -0.34630  -0.33939  -0.30926
 Alpha  occ. eigenvalues --   -0.28878  -0.26996
 Alpha virt. eigenvalues --   -0.11875  -0.10438  -0.09288  -0.07832  -0.07602
 Alpha virt. eigenvalues --   -0.06942  -0.04247  -0.04183  -0.03061  -0.02152
 Alpha virt. eigenvalues --   -0.01749  -0.01125  -0.00658  -0.00421   0.00688

 Mulliken charges:
               1
     1  N   -0.699029
     2  H    0.302842
     3  H    0.315723
     4  C   -0.087319
     5  H    0.147608
     6  C    0.636521
     7  C   -0.337475
     8  H    0.177421
     9  H    0.155339
    10  O   -0.533100
    11  C    0.068838
    12  C   -0.006902
    13  H    0.163672
    14  C    0.077541
    15  C    0.313150
    16  C   -0.208117
    17  H    0.134244
    18  N   -0.691104
    19  H    0.332714
    20  C   -0.149298
    21  H    0.138226
    22  C   -0.217416
    23  H    0.131824
    24  C   -0.132591
    25  H    0.136768
    26  N   -0.642190
    27  H    0.338482
    28  C   -0.038727
    29  H    0.171263
    30  C    0.654678
    31  C   -0.072822
    32  H    0.157320
    33  O   -0.599357
    34  C   -0.266358
    35  H    0.150618
    36  H    0.139046
    37  C   -0.463137
    38  H    0.135586
    39  H    0.161126
    40  H    0.161175
    41  C   -0.448497
    42  H    0.162388
    43  H    0.123962
    44  H    0.130950
    45  N   -0.608998
    46  H    0.370893
    47  C   -0.036433
    48  H    0.217786
    49  C    0.612932
    50  C   -0.302010
    51  H    0.189150
    52  H    0.166601
    53  O   -0.457387
    54  C   -0.316018
    55  H    0.184390
    56  H    0.177798
    57  C   -0.154412
    58  H    0.183746
    59  H    0.176012
    60  N   -0.630287
    61  H    0.424590
    62  N   -0.758223
    63  H    0.381573
    64  H    0.386714
    65  N   -0.780785
    66  H    0.418772
    67  H    0.370964
    68  C    0.802200
    69  O   -0.577544
    70  H    0.432388
 Sum of Mulliken charges =   1.00000

 Dipole moment (field-independent basis, Debye):
    X=             13.7666    Y=             14.5308    Z=             -6.0404  Tot=             20.9082
 Quadrupole moment (field-independent basis, Debye-Ang):
   XX=           -118.4832   YY=           -133.1498   ZZ=           -142.0659
   XY=             56.6677   XZ=            -17.8002   YZ=            -32.9397

 Normal termination of Gaussian 16 at Thu May 26 00:23:48 2022.
