 Gaussian 16, Revision C.01,
 Gaussian 16:  ES64L-G16RevC.01  3-Jul-2019

 -------------------------------------------------------------------
 # B3LYP/6-31G* guess=read geom=check nosymm integral(ultrafinegrid)
 -------------------------------------------------------------------

 ------------------------------------------------------
 Candidate Structure: Conf:841 Charge calc in gas phase
 ------------------------------------------------------
 Structure from the checkpoint file:  "conf-841.chk"
 Charge =  1 Multiplicity = 1

                          Input orientation:
 ---------------------------------------------------------------------
 Center     Atomic      Atomic             Coordinates (Angstroms)
 Number     Number       Type             X           Y           Z
 ---------------------------------------------------------------------
      1          7           0        0.299709    0.528388    4.245719
      2          1           0       -0.025012    1.490544    4.159787
      3          1           0        0.127256    0.238659    5.207260
      4          6           0       -0.490760   -0.296236    3.341459
      5          1           0       -0.065937   -1.309320    3.350846
      6          6           0       -0.330557    0.274213    1.933199
      7          6           0       -2.008728   -0.445154    3.716777
      8          1           0       -2.501045   -1.078095    2.966471
      9          1           0       -2.033747   -1.014371    4.655405
     10          8           0       -0.206024    1.487732    1.735763
     11          6           0       -2.767950    0.837877    3.893447
     12          6           0       -2.900311    1.542403    5.067037
     13          1           0       -2.523678    1.311637    6.054785
     14          6           0       -3.505340    1.578742    2.895864
     15          6           0       -4.056335    2.721257    3.538384
     16          6           0       -3.775002    1.380786    1.530539
     17          1           0       -3.373751    0.513998    1.012488
     18          7           0       -3.659486    2.676906    4.859496
     19          1           0       -3.947641    3.322755    5.577937
     20          6           0       -5.097183    3.427850    1.513487
     21          1           0       -5.715643    4.128748    0.959765
     22          6           0       -4.850503    3.653534    2.862143
     23          1           0       -5.265304    4.518634    3.372976
     24          6           0       -4.565635    2.300206    0.854120
     25          1           0       -4.784682    2.149570   -0.199581
     26          7           0       -0.395959   -0.625927    0.910803
     27          1           0       -0.273715   -1.605552    1.129375
     28          6           0       -0.320450   -0.225155   -0.501397
     29          1           0       -0.815607    0.751141   -0.547519
     30          6           0        1.178378   -0.036608   -0.849183
     31          6           0       -1.014344   -1.217198   -1.466145
     32          1           0       -0.269782   -1.978237   -1.730803
     33          8           0        1.833993   -0.840643   -1.495952
     34          6           0       -1.458747   -0.506000   -2.767027
     35          1           0       -1.919909   -1.265123   -3.411572
     36          1           0       -2.261576    0.203461   -2.516435
     37          6           0       -2.234199   -1.917874   -0.845803
     38          1           0       -2.996359   -1.197749   -0.525247
     39          1           0       -2.695419   -2.577938   -1.588309
     40          1           0       -1.978295   -2.538542    0.018759
     41          6           0       -0.376216    0.221642   -3.573670
     42          1           0       -0.801470    0.606847   -4.507515
     43          1           0        0.454311   -0.445758   -3.822904
     44          1           0        0.038784    1.078591   -3.028831
     45          7           0        1.715740    1.122477   -0.329829
     46          1           0        1.155526    1.549480    0.415889
     47          6           0        3.153144    1.239069   -0.230409
     48          1           0        3.575398    0.752111   -1.117856
     49          6           0        3.688747    0.442151    0.970505
     50          6           0        3.595095    2.714154   -0.194009
     51          1           0        3.153405    3.202252    0.686644
     52          1           0        4.682476    2.740694   -0.065227
     53          8           0        3.031090   -0.276728    1.679797
     54          6           0        3.175962    3.469048   -1.461317
     55          1           0        2.089343    3.401606   -1.582911
     56          1           0        3.612310    2.974957   -2.342358
     57          6           0        3.547058    4.956022   -1.446022
     58          1           0        3.155676    5.480393   -2.323830
     59          1           0        3.117092    5.449226   -0.569562
     60          7           0        5.002739    5.217103   -1.385737
     61          1           0        5.430660    5.240309   -0.468781
     62          7           0        5.403409    5.002991   -3.667208
     63          1           0        5.924946    5.287106   -4.484563
     64          1           0        4.564362    4.460724   -3.814511
     65          7           0        7.078806    5.760973   -2.264774
     66          1           0        7.365027    6.220790   -1.411859
     67          1           0        7.785936    5.615547   -2.971656
     68          6           0        5.820802    5.317871   -2.433062
     69          8           0        5.026317    0.620219    1.123476
     70          1           0        5.293083    0.054720    1.873845
 ---------------------------------------------------------------------

 SCF Done:  E(RB3LYP) =  -1582.13616409     A.U. after    1 cycles

 Alpha  occ. eigenvalues --  -19.27863 -19.22031 -19.18841 -19.18559 -14.55051
 Alpha  occ. eigenvalues --  -14.55026 -14.54939 -14.43171 -14.42740 -14.42313
 Alpha  occ. eigenvalues --  -14.36495 -10.51423 -10.39924 -10.37941 -10.35475
 Alpha  occ. eigenvalues --  -10.35262 -10.32544 -10.31776 -10.30412 -10.29762
 Alpha  occ. eigenvalues --  -10.28172 -10.26781 -10.26414 -10.25281 -10.24834
 Alpha  occ. eigenvalues --  -10.24112 -10.23488 -10.23381 -10.23193 -10.23118
 Alpha  occ. eigenvalues --  -10.23049 -10.22915 -10.22888 -10.22510  -1.19756
 Alpha  occ. eigenvalues --   -1.18556  -1.11001  -1.09998  -1.09582  -1.08894
 Alpha  occ. eigenvalues --   -1.07919  -1.02574  -1.00005  -0.99088  -0.94140
 Alpha  occ. eigenvalues --   -0.92773  -0.88248  -0.87421  -0.86652  -0.84518
 Alpha  occ. eigenvalues --   -0.82863  -0.80548  -0.79381  -0.78653  -0.77929
 Alpha  occ. eigenvalues --   -0.77370  -0.77143  -0.75618  -0.74408  -0.71530
 Alpha  occ. eigenvalues --   -0.70920  -0.69752  -0.68605  -0.68101  -0.67869
 Alpha  occ. eigenvalues --   -0.66791  -0.65643  -0.64673  -0.63863  -0.63051
 Alpha  occ. eigenvalues --   -0.62546  -0.61396  -0.60731  -0.59755  -0.58563
 Alpha  occ. eigenvalues --   -0.58500  -0.57557  -0.57138  -0.56274  -0.55702
 Alpha  occ. eigenvalues --   -0.55266  -0.53906  -0.53216  -0.52822  -0.51960
 Alpha  occ. eigenvalues --   -0.51785  -0.50665  -0.50248  -0.49818  -0.49225
 Alpha  occ. eigenvalues --   -0.48715  -0.48596  -0.48164  -0.48076  -0.47616
 Alpha  occ. eigenvalues --   -0.47287  -0.47087  -0.46757  -0.46356  -0.46123
 Alpha  occ. eigenvalues --   -0.45999  -0.45973  -0.45131  -0.44611  -0.44103
 Alpha  occ. eigenvalues --   -0.43522  -0.43305  -0.42594  -0.42342  -0.41484
 Alpha  occ. eigenvalues --   -0.40933  -0.39856  -0.39727  -0.39173  -0.38551
 Alpha  occ. eigenvalues --   -0.38073  -0.37756  -0.37615  -0.35799  -0.34585
 Alpha  occ. eigenvalues --   -0.33268  -0.32448  -0.31800  -0.30704  -0.28821
 Alpha  occ. eigenvalues --   -0.26694  -0.24853
 Alpha virt. eigenvalues --   -0.15313  -0.11092  -0.07598  -0.07194  -0.06672
 Alpha virt. eigenvalues --   -0.05864  -0.05660  -0.05572  -0.04058  -0.02037
 Alpha virt. eigenvalues --   -0.01796  -0.00624  -0.00046   0.00021   0.00711

 Mulliken charges:
               1
     1  N   -0.707789
     2  H    0.316731
     3  H    0.294227
     4  C   -0.064460
     5  H    0.143070
     6  C    0.670779
     7  C   -0.377027
     8  H    0.150261
     9  H    0.151517
    10  O   -0.561547
    11  C    0.084229
    12  C   -0.010741
    13  H    0.146954
    14  C    0.088743
    15  C    0.311438
    16  C   -0.209786
    17  H    0.129977
    18  N   -0.687953
    19  H    0.331365
    20  C   -0.151634
    21  H    0.127552
    22  C   -0.161797
    23  H    0.126751
    24  C   -0.149065
    25  H    0.117757
    26  N   -0.614135
    27  H    0.343929
    28  C   -0.055110
    29  H    0.178542
    30  C    0.628364
    31  C   -0.111402
    32  H    0.164194
    33  O   -0.518278
    34  C   -0.253936
    35  H    0.146233
    36  H    0.134124
    37  C   -0.461227
    38  H    0.162621
    39  H    0.159124
    40  H    0.134266
    41  C   -0.459370
    42  H    0.144802
    43  H    0.169056
    44  H    0.126119
    45  N   -0.627398
    46  H    0.378918
    47  C   -0.056797
    48  H    0.201106
    49  C    0.599767
    50  C   -0.294925
    51  H    0.164638
    52  H    0.155967
    53  O   -0.436917
    54  C   -0.271868
    55  H    0.203801
    56  H    0.140573
    57  C   -0.195782
    58  H    0.190049
    59  H    0.207024
    60  N   -0.582256
    61  H    0.372530
    62  N   -0.752306
    63  H    0.390151
    64  H    0.398404
    65  N   -0.759162
    66  H    0.389261
    67  H    0.389714
    68  C    0.827021
    69  O   -0.582140
    70  H    0.423161
 Sum of Mulliken charges =   1.00000

 Dipole moment (field-independent basis, Debye):
    X=             23.2797    Y=             23.6061    Z=             -6.1685  Tot=             33.7231
 Quadrupole moment (field-independent basis, Debye-Ang):
   XX=            -28.9412   YY=            -64.1432   ZZ=           -128.0476
   XY=            135.8218   XZ=            -68.6165   YZ=            -48.3251

 Normal termination of Gaussian 16 at Thu May 26 00:22:40 2022.
