 Gaussian 16, Revision C.01,
 Gaussian 16:  ES64L-G16RevC.01  3-Jul-2019

 -------------------------------------------------------------------
 # B3LYP/6-31G* guess=read geom=check nosymm integral(ultrafinegrid)
 -------------------------------------------------------------------

 ------------------------------------------------------
 Candidate Structure: Conf:883 Charge calc in gas phase
 ------------------------------------------------------
 Structure from the checkpoint file:  "conf-883.chk"
 Charge =  1 Multiplicity = 1

                          Input orientation:
 ---------------------------------------------------------------------
 Center     Atomic      Atomic             Coordinates (Angstroms)
 Number     Number       Type             X           Y           Z
 ---------------------------------------------------------------------
      1          7           0        0.646798   -3.563788    1.118010
      2          1           0       -0.034308   -3.846422    0.414520
      3          1           0        1.552731   -3.533895    0.650530
      4          6           0        0.341010   -2.227114    1.622898
      5          1           0       -0.704157   -2.223714    1.954012
      6          6           0        0.563004   -1.138565    0.564110
      7          6           0        1.240997   -1.893903    2.841534
      8          1           0        2.281756   -2.062408    2.526438
      9          1           0        1.162175   -0.819247    3.049906
     10          8           0        1.607924   -1.103077   -0.100206
     11          6           0        0.901178   -2.649663    4.094604
     12          6           0        0.690854   -4.001459    4.239130
     13          1           0        0.716391   -4.778179    3.489533
     14          6           0        0.738030   -2.065570    5.405531
     15          6           0        0.424384   -3.125907    6.299983
     16          6           0        0.825669   -0.756345    5.914306
     17          1           0        1.070523    0.080382    5.263742
     18          7           0        0.404451   -4.289026    5.557696
     19          1           0        0.201843   -5.208480    5.918671
     20          6           0        0.285762   -1.610215    8.134406
     21          1           0        0.113312   -1.410403    9.188081
     22          6           0        0.195603   -2.914346    7.663685
     23          1           0       -0.043588   -3.738016    8.331116
     24          6           0        0.597902   -0.542210    7.267692
     25          1           0        0.660145    0.465231    7.670184
     26          7           0       -0.405109   -0.191011    0.454594
     27          1           0       -1.264351   -0.342125    0.966102
     28          6           0       -0.375636    0.943857   -0.485640
     29          1           0       -1.071828    1.677807   -0.059426
     30          6           0        1.042157    1.559160   -0.413261
     31          6           0       -0.824703    0.626682   -1.940239
     32          1           0        0.077584    0.381615   -2.510734
     33          8           0        1.783180    1.627665   -1.399793
     34          6           0       -1.503982    1.855752   -2.590487
     35          1           0       -1.800961    1.563728   -3.605425
     36          1           0       -2.442756    2.056673   -2.052054
     37          6           0       -1.782462   -0.573061   -2.003367
     38          1           0       -2.692814   -0.401911   -1.414047
     39          1           0       -2.094857   -0.740652   -3.039092
     40          1           0       -1.314931   -1.496091   -1.647895
     41          6           0       -0.684817    3.149134   -2.676632
     42          1           0       -1.253299    3.915325   -3.214370
     43          1           0        0.260010    2.991516   -3.205517
     44          1           0       -0.447535    3.562945   -1.688785
     45          7           0        1.400332    2.007296    0.811446
     46          1           0        0.778136    1.838711    1.597081
     47          6           0        2.789244    2.229035    1.192672
     48          1           0        3.377270    1.354391    0.884129
     49          6           0        2.816618    2.222437    2.721132
     50          6           0        3.433712    3.506533    0.577092
     51          1           0        2.873980    3.760516   -0.328170
     52          1           0        3.300694    4.345888    1.266571
     53          8           0        1.847789    1.998610    3.415225
     54          6           0        4.934399    3.341002    0.249235
     55          1           0        5.420153    2.730343    1.018230
     56          1           0        5.420628    4.322742    0.286366
     57          6           0        5.234646    2.762550   -1.147259
     58          1           0        4.930592    3.475675   -1.921019
     59          1           0        6.312351    2.615416   -1.253508
     60          7           0        4.527991    1.505151   -1.425886
     61          1           0        3.497573    1.577520   -1.468828
     62          7           0        6.348604    0.050106   -1.606183
     63          1           0        6.723182   -0.883522   -1.525048
     64          1           0        6.945979    0.747458   -2.023677
     65          7           0        4.199149   -0.777496   -1.339071
     66          1           0        3.229069   -0.688059   -1.023943
     67          1           0        4.501835   -1.698490   -1.620996
     68          6           0        5.023376    0.271856   -1.463671
     69          8           0        4.043302    2.471319    3.202612
     70          1           0        3.989759    2.438083    4.178131
 ---------------------------------------------------------------------

 SCF Done:  E(RB3LYP) =  -1582.16781173     A.U. after    1 cycles

 Alpha  occ. eigenvalues --  -19.31683 -19.26320 -19.24275 -19.23250 -14.51225
 Alpha  occ. eigenvalues --  -14.49726 -14.49523 -14.47732 -14.47617 -14.43447
 Alpha  occ. eigenvalues --  -14.40781 -10.46968 -10.44288 -10.41114 -10.39464
 Alpha  occ. eigenvalues --  -10.36142 -10.35491 -10.34528 -10.31676 -10.30738
 Alpha  occ. eigenvalues --  -10.30599 -10.28252 -10.27279 -10.27198 -10.27119
 Alpha  occ. eigenvalues --  -10.26548 -10.26264 -10.25210 -10.24060 -10.24038
 Alpha  occ. eigenvalues --  -10.23835 -10.23783 -10.23486 -10.23219  -1.22779
 Alpha  occ. eigenvalues --   -1.16178  -1.15134  -1.14403  -1.13898  -1.04950
 Alpha  occ. eigenvalues --   -1.04607  -1.03395  -1.03279  -1.03196  -0.98028
 Alpha  occ. eigenvalues --   -0.92046  -0.90221  -0.88997  -0.87614  -0.86271
 Alpha  occ. eigenvalues --   -0.83406  -0.81380  -0.80981  -0.80003  -0.78632
 Alpha  occ. eigenvalues --   -0.77670  -0.76861  -0.74338  -0.73451  -0.72740
 Alpha  occ. eigenvalues --   -0.72558  -0.70654  -0.69876  -0.69421  -0.68381
 Alpha  occ. eigenvalues --   -0.67387  -0.65687  -0.65106  -0.64518  -0.64114
 Alpha  occ. eigenvalues --   -0.63048  -0.62597  -0.61618  -0.61235  -0.60362
 Alpha  occ. eigenvalues --   -0.59574  -0.59234  -0.58881  -0.58382  -0.57649
 Alpha  occ. eigenvalues --   -0.56557  -0.56144  -0.55322  -0.54680  -0.54511
 Alpha  occ. eigenvalues --   -0.54161  -0.53227  -0.52925  -0.52468  -0.52111
 Alpha  occ. eigenvalues --   -0.51596  -0.51303  -0.50783  -0.50096  -0.49800
 Alpha  occ. eigenvalues --   -0.49507  -0.49264  -0.48474  -0.48068  -0.47392
 Alpha  occ. eigenvalues --   -0.47163  -0.46842  -0.46434  -0.45938  -0.45371
 Alpha  occ. eigenvalues --   -0.45120  -0.44324  -0.44024  -0.43755  -0.43099
 Alpha  occ. eigenvalues --   -0.42208  -0.41951  -0.41446  -0.40706  -0.40586
 Alpha  occ. eigenvalues --   -0.40066  -0.39147  -0.38965  -0.38583  -0.38487
 Alpha  occ. eigenvalues --   -0.37406  -0.37382  -0.36296  -0.33299  -0.32310
 Alpha  occ. eigenvalues --   -0.27465  -0.25597
 Alpha virt. eigenvalues --   -0.11523  -0.10974  -0.10394  -0.09026  -0.07173
 Alpha virt. eigenvalues --   -0.06259  -0.04036  -0.03633  -0.03199  -0.02501
 Alpha virt. eigenvalues --   -0.01318  -0.00311  -0.00022   0.00095   0.00611

 Mulliken charges:
               1
     1  N   -0.690059
     2  H    0.310190
     3  H    0.305185
     4  C   -0.079522
     5  H    0.150283
     6  C    0.624655
     7  C   -0.349741
     8  H    0.148035
     9  H    0.149894
    10  O   -0.578844
    11  C    0.058854
    12  C    0.011575
    13  H    0.173893
    14  C    0.068758
    15  C    0.314494
    16  C   -0.228914
    17  H    0.130170
    18  N   -0.689997
    19  H    0.333651
    20  C   -0.151008
    21  H    0.133254
    22  C   -0.160542
    23  H    0.131813
    24  C   -0.142122
    25  H    0.122444
    26  N   -0.621646
    27  H    0.351186
    28  C   -0.046125
    29  H    0.175305
    30  C    0.654801
    31  C   -0.081604
    32  H    0.163066
    33  O   -0.568860
    34  C   -0.263890
    35  H    0.153720
    36  H    0.136908
    37  C   -0.459216
    38  H    0.141830
    39  H    0.168496
    40  H    0.142326
    41  C   -0.454996
    42  H    0.162101
    43  H    0.160526
    44  H    0.131796
    45  N   -0.604955
    46  H    0.368440
    47  C   -0.033119
    48  H    0.186158
    49  C    0.590316
    50  C   -0.293984
    51  H    0.184493
    52  H    0.181059
    53  O   -0.452091
    54  C   -0.277433
    55  H    0.174086
    56  H    0.175613
    57  C   -0.167183
    58  H    0.194624
    59  H    0.161368
    60  N   -0.631956
    61  H    0.433570
    62  N   -0.759687
    63  H    0.374817
    64  H    0.379449
    65  N   -0.793777
    66  H    0.437531
    67  H    0.362368
    68  C    0.785916
    69  O   -0.556153
    70  H    0.438407
 Sum of Mulliken charges =   1.00000

 Dipole moment (field-independent basis, Debye):
    X=             16.5466    Y=              1.2863    Z=             -1.4087  Tot=             16.6562
 Quadrupole moment (field-independent basis, Debye-Ang):
   XX=            -84.1761   YY=           -154.2343   ZZ=           -171.4485
   XY=             17.0935   XZ=            -18.4800   YZ=             -6.0828

 Normal termination of Gaussian 16 at Thu May 26 00:22:25 2022.
