 Gaussian 16, Revision C.01,
 Gaussian 16:  ES64L-G16RevC.01  3-Jul-2019

 -------------------------------------------------------------------
 # B3LYP/6-31G* guess=read geom=check nosymm integral(ultrafinegrid)
 -------------------------------------------------------------------

 ------------------------------------------------------
 Candidate Structure: Conf:231 Charge calc in gas phase
 ------------------------------------------------------
 Structure from the checkpoint file:  "conf-231.chk"
 Charge =  1 Multiplicity = 1

                          Input orientation:
 ---------------------------------------------------------------------
 Center     Atomic      Atomic             Coordinates (Angstroms)
 Number     Number       Type             X           Y           Z
 ---------------------------------------------------------------------
      1          7           0       -1.019588   -4.222002    1.823338
      2          1           0       -1.851116   -4.480304    1.293882
      3          1           0       -0.229234   -4.548958    1.268040
      4          6           0       -0.934489   -2.776882    1.922906
      5          1           0       -1.823173   -2.420649    2.463911
      6          6           0       -0.875891   -2.056255    0.557668
      7          6           0        0.309126   -2.373041    2.773343
      8          1           0        0.358038   -1.275828    2.822681
      9          1           0        0.116720   -2.720162    3.793269
     10          8           0       -0.461965   -2.605074   -0.452950
     11          6           0        1.621713   -2.947918    2.304933
     12          6           0        2.319651   -2.643071    1.157643
     13          1           0        2.067966   -1.975935    0.344536
     14          6           0        2.397155   -3.953254    2.996505
     15          6           0        3.556281   -4.207429    2.214577
     16          6           0        2.223999   -4.665397    4.196777
     17          1           0        1.341981   -4.506242    4.811310
     18          7           0        3.489400   -3.379188    1.110766
     19          1           0        4.090954   -3.441796    0.304018
     20          6           0        4.325636   -5.829586    3.782347
     21          1           0        5.056857   -6.566078    4.103579
     22          6           0        4.527221   -5.141143    2.592105
     23          1           0        5.403341   -5.327289    1.975828
     24          6           0        3.185026   -5.592554    4.577413
     25          1           0        3.055579   -6.152342    5.499413
     26          7           0       -1.300727   -0.743078    0.594272
     27          1           0       -1.589850   -0.405980    1.503376
     28          6           0       -0.978719    0.302949   -0.392931
     29          1           0       -1.584863    1.167744   -0.094946
     30          6           0        0.511017    0.664463   -0.197994
     31          6           0       -1.316985   -0.049569   -1.856391
     32          1           0       -0.631793   -0.847835   -2.151124
     33          8           0        1.431611    0.162957   -0.833644
     34          6           0       -1.051771    1.151828   -2.796577
     35          1           0        0.011438    1.418209   -2.744231
     36          1           0       -1.217538    0.796979   -3.821803
     37          6           0       -2.751906   -0.580662   -1.982041
     38          1           0       -3.492715    0.112114   -1.564283
     39          1           0       -3.001826   -0.736411   -3.037543
     40          1           0       -2.859542   -1.540078   -1.470582
     41          6           0       -1.906020    2.407478   -2.569675
     42          1           0       -1.674286    3.167273   -3.324454
     43          1           0       -1.726172    2.867188   -1.589343
     44          1           0       -2.977378    2.192481   -2.642951
     45          7           0        0.761045    1.558465    0.816247
     46          1           0        0.002649    1.857019    1.413396
     47          6           0        2.119765    1.710225    1.317298
     48          1           0        2.594960    0.717856    1.270006
     49          6           0        2.133678    2.119385    2.785890
     50          6           0        2.950537    2.671948    0.437576
     51          1           0        2.694994    2.427858   -0.597909
     52          1           0        2.637081    3.705826    0.627486
     53          8           0        3.056777    2.663908    3.330668
     54          6           0        4.464581    2.524098    0.639903
     55          1           0        4.755279    1.478496    0.473720
     56          1           0        4.716739    2.784693    1.673183
     57          6           0        5.248799    3.413898   -0.325693
     58          1           0        5.062654    3.110764   -1.362480
     59          1           0        4.949119    4.463636   -0.206764
     60          7           0        6.696183    3.285179   -0.059825
     61          1           0        6.956250    2.929614    0.852495
     62          7           0        7.406347    4.387859   -1.974582
     63          1           0        8.090772    4.495230   -2.709958
     64          1           0        6.487360    4.773388   -2.136046
     65          7           0        8.951694    3.341257   -0.607815
     66          1           0        9.181009    2.682411    0.122985
     67          1           0        9.721465    3.826279   -1.047254
     68          6           0        7.676157    3.673840   -0.872676
     69          8           0        0.999776    1.779616    3.434251
     70          1           0        1.114766    2.043914    4.368188
 ---------------------------------------------------------------------

 SCF Done:  E(RB3LYP) =  -1582.12553335     A.U. after    1 cycles

 Alpha  occ. eigenvalues --  -19.30454 -19.24683 -19.20393 -19.17501 -14.55183
 Alpha  occ. eigenvalues --  -14.55038 -14.54959 -14.45379 -14.42941 -14.42654
 Alpha  occ. eigenvalues --  -14.35747 -10.51457 -10.42863 -10.38138 -10.37202
 Alpha  occ. eigenvalues --  -10.34436 -10.34094 -10.31665 -10.30941 -10.30235
 Alpha  occ. eigenvalues --  -10.27770 -10.26256 -10.26235 -10.24946 -10.24650
 Alpha  occ. eigenvalues --  -10.24031 -10.23613 -10.23251 -10.22987 -10.22736
 Alpha  occ. eigenvalues --  -10.22643 -10.22639 -10.22436 -10.22115  -1.21587
 Alpha  occ. eigenvalues --   -1.19855  -1.12647  -1.12365  -1.09236  -1.09010
 Alpha  occ. eigenvalues --   -1.08026  -1.02386  -1.01950  -0.98977  -0.93600
 Alpha  occ. eigenvalues --   -0.93238  -0.87997  -0.87995  -0.86735  -0.84338
 Alpha  occ. eigenvalues --   -0.83001  -0.80911  -0.79972  -0.78522  -0.77647
 Alpha  occ. eigenvalues --   -0.77632  -0.76660  -0.75319  -0.74681  -0.73010
 Alpha  occ. eigenvalues --   -0.70607  -0.69979  -0.69106  -0.68509  -0.67763
 Alpha  occ. eigenvalues --   -0.67433  -0.66432  -0.64801  -0.64110  -0.63728
 Alpha  occ. eigenvalues --   -0.63320  -0.61708  -0.60471  -0.59807  -0.59373
 Alpha  occ. eigenvalues --   -0.58833  -0.58445  -0.57796  -0.57414  -0.56367
 Alpha  occ. eigenvalues --   -0.55336  -0.54879  -0.53497  -0.53067  -0.52369
 Alpha  occ. eigenvalues --   -0.52261  -0.51323  -0.51225  -0.51013  -0.50100
 Alpha  occ. eigenvalues --   -0.49456  -0.48943  -0.48437  -0.47531  -0.47360
 Alpha  occ. eigenvalues --   -0.47168  -0.46700  -0.46646  -0.46475  -0.46103
 Alpha  occ. eigenvalues --   -0.45872  -0.45515  -0.45472  -0.44637  -0.43702
 Alpha  occ. eigenvalues --   -0.43677  -0.43517  -0.42678  -0.42488  -0.41886
 Alpha  occ. eigenvalues --   -0.41655  -0.40453  -0.39337  -0.39024  -0.38233
 Alpha  occ. eigenvalues --   -0.38064  -0.37927  -0.37558  -0.37432  -0.35484
 Alpha  occ. eigenvalues --   -0.34847  -0.31823  -0.31348  -0.30950  -0.28309
 Alpha  occ. eigenvalues --   -0.26535  -0.24601
 Alpha virt. eigenvalues --   -0.15135  -0.11026  -0.09672  -0.07328  -0.07112
 Alpha virt. eigenvalues --   -0.06396  -0.05657  -0.05470  -0.03685  -0.03411
 Alpha virt. eigenvalues --   -0.02653  -0.01681  -0.01537  -0.00886  -0.00111

 Mulliken charges:
               1
     1  N   -0.691824
     2  H    0.304474
     3  H    0.322776
     4  C   -0.076823
     5  H    0.134019
     6  C    0.601349
     7  C   -0.349917
     8  H    0.123177
     9  H    0.168681
    10  O   -0.510220
    11  C    0.036860
    12  C   -0.025968
    13  H    0.190539
    14  C    0.083759
    15  C    0.305403
    16  C   -0.202337
    17  H    0.132814
    18  N   -0.695031
    19  H    0.324875
    20  C   -0.150841
    21  H    0.128601
    22  C   -0.165814
    23  H    0.118494
    24  C   -0.140637
    25  H    0.128235
    26  N   -0.613010
    27  H    0.323062
    28  C   -0.051575
    29  H    0.141625
    30  C    0.650541
    31  C   -0.076037
    32  H    0.188761
    33  O   -0.528363
    34  C   -0.276659
    35  H    0.136026
    36  H    0.147025
    37  C   -0.460306
    38  H    0.134803
    39  H    0.151670
    40  H    0.168103
    41  C   -0.454451
    42  H    0.149756
    43  H    0.126624
    44  H    0.160786
    45  N   -0.630613
    46  H    0.344554
    47  C   -0.035989
    48  H    0.211661
    49  C    0.586981
    50  C   -0.266509
    51  H    0.183963
    52  H    0.155384
    53  O   -0.451676
    54  C   -0.329112
    55  H    0.172939
    56  H    0.196711
    57  C   -0.146994
    58  H    0.189764
    59  H    0.188764
    60  N   -0.608461
    61  H    0.371561
    62  N   -0.755392
    63  H    0.390630
    64  H    0.397373
    65  N   -0.761238
    66  H    0.389410
    67  H    0.389530
    68  C    0.840340
    69  O   -0.568556
    70  H    0.431949
 Sum of Mulliken charges =   1.00000

 Dipole moment (field-independent basis, Debye):
    X=             30.6380    Y=             19.5019    Z=             -1.9299  Tot=             36.3695
 Quadrupole moment (field-independent basis, Debye-Ang):
   XX=             75.6016   YY=           -142.2410   ZZ=           -179.8125
   XY=            114.6063   XZ=            -38.9089   YZ=            -14.2703

 Normal termination of Gaussian 16 at Thu May 26 00:20:19 2022.
