 Gaussian 16, Revision C.01,
 Gaussian 16:  ES64L-G16RevC.01  3-Jul-2019

 -------------------------------------------------------------------
 # B3LYP/6-31G* guess=read geom=check nosymm integral(ultrafinegrid)
 -------------------------------------------------------------------

 ------------------------------------------------------
 Candidate Structure: Conf:234 Charge calc in gas phase
 ------------------------------------------------------
 Structure from the checkpoint file:  "conf-234.chk"
 Charge =  1 Multiplicity = 1

                          Input orientation:
 ---------------------------------------------------------------------
 Center     Atomic      Atomic             Coordinates (Angstroms)
 Number     Number       Type             X           Y           Z
 ---------------------------------------------------------------------
      1          7           0        0.526671    0.495866    4.038224
      2          1           0        1.421996    0.139563    3.704945
      3          1           0        0.622909    1.505200    4.140338
      4          6           0       -0.537502    0.205283    3.081896
      5          1           0       -0.520188   -0.873823    2.893887
      6          6           0       -0.319853    0.940898    1.752019
      7          6           0       -1.911422    0.576156    3.684419
      8          1           0       -1.962541    0.073720    4.657876
      9          1           0       -1.920561    1.655197    3.882875
     10          8           0       -0.110351    2.165478    1.732595
     11          6           0       -3.076385    0.206304    2.812064
     12          6           0       -3.984854    1.069856    2.250509
     13          1           0       -4.053974    2.145869    2.338739
     14          6           0       -3.465660   -1.121504    2.391029
     15          6           0       -4.619559   -0.980392    1.570281
     16          6           0       -2.967165   -2.416117    2.635571
     17          1           0       -2.110936   -2.568636    3.288193
     18          7           0       -4.905981    0.368869    1.496897
     19          1           0       -5.719753    0.768322    1.055190
     20          6           0       -4.745193   -3.339329    1.246475
     21          1           0       -5.227473   -4.212295    0.816540
     22          6           0       -5.268041   -2.077080    0.992253
     23          1           0       -6.152015   -1.949418    0.373209
     24          6           0       -3.607279   -3.507777    2.062024
     25          1           0       -3.235118   -4.510155    2.253357
     26          7           0       -0.268820    0.176366    0.634696
     27          1           0       -0.509570   -0.802455    0.730517
     28          6           0       -0.061538    0.685965   -0.719064
     29          1           0       -0.395636    1.730094   -0.711970
     30          6           0        1.437329    0.744232   -1.108405
     31          6           0       -0.886452   -0.090807   -1.773743
     32          1           0       -0.583853    0.342295   -2.733847
     33          8           0        1.805113    0.739001   -2.272774
     34          6           0       -2.404581    0.116463   -1.601288
     35          1           0       -2.899456   -0.476380   -2.380826
     36          1           0       -2.734583   -0.310640   -0.645669
     37          6           0       -0.534967   -1.588143   -1.812051
     38          1           0       -0.867129   -2.122374   -0.911492
     39          1           0       -1.042088   -2.065755   -2.656224
     40          1           0        0.539733   -1.752683   -1.940936
     41          6           0       -2.882680    1.569102   -1.706532
     42          1           0       -3.976929    1.611494   -1.705586
     43          1           0       -2.535391    2.040504   -2.634296
     44          1           0       -2.539877    2.181688   -0.863880
     45          7           0        2.319071    0.921063   -0.053605
     46          1           0        1.972188    0.632364    0.857297
     47          6           0        3.743013    0.616052   -0.218560
     48          1           0        3.872258    0.064221   -1.156209
     49          6           0        4.142759   -0.284168    0.950205
     50          6           0        4.648697    1.871294   -0.259785
     51          1           0        4.607587    2.371922    0.717129
     52          1           0        5.678957    1.525591   -0.382990
     53          8           0        3.431939   -0.506807    1.910444
     54          6           0        4.280984    2.858255   -1.396418
     55          1           0        3.589592    2.387295   -2.103179
     56          1           0        5.181229    3.110442   -1.966149
     57          6           0        3.692042    4.190173   -0.920527
     58          1           0        4.411464    4.705366   -0.268514
     59          1           0        3.505910    4.825888   -1.795710
     60          7           0        2.429088    3.995996   -0.193871
     61          1           0        2.172984    3.035277    0.045359
     62          7           0        1.978984    6.267371   -0.002582
     63          1           0        1.315838    7.013761    0.145458
     64          1           0        2.823292    6.501119   -0.501495
     65          7           0        0.460350    4.707632    0.800200
     66          1           0        0.216674    3.742311    1.065795
     67          1           0       -0.058638    5.448857    1.249032
     68          6           0        1.625135    4.983150    0.205175
     69          8           0        5.379482   -0.774237    0.803495
     70          1           0        5.580471   -1.322193    1.587400
 ---------------------------------------------------------------------

 SCF Done:  E(RB3LYP) =  -1582.17425413     A.U. after    2 cycles

 Alpha  occ. eigenvalues --  -19.31256 -19.26079 -19.23601 -19.23449 -14.51891
 Alpha  occ. eigenvalues --  -14.50850 -14.49735 -14.47651 -14.47350 -14.45144
 Alpha  occ. eigenvalues --  -14.40234 -10.47498 -10.43957 -10.40214 -10.39666
 Alpha  occ. eigenvalues --  -10.36145 -10.35408 -10.34014 -10.31434 -10.30962
 Alpha  occ. eigenvalues --  -10.30794 -10.29256 -10.28892 -10.28557 -10.27007
 Alpha  occ. eigenvalues --  -10.26360 -10.26263 -10.25779 -10.25673 -10.25622
 Alpha  occ. eigenvalues --  -10.25538 -10.25489 -10.25073 -10.24763  -1.22427
 Alpha  occ. eigenvalues --   -1.16028  -1.15430  -1.14684  -1.13534  -1.05470
 Alpha  occ. eigenvalues --   -1.04986  -1.04623  -1.03896  -1.03116  -0.97637
 Alpha  occ. eigenvalues --   -0.92108  -0.90635  -0.90323  -0.87691  -0.87381
 Alpha  occ. eigenvalues --   -0.83515  -0.81621  -0.81013  -0.80319  -0.80066
 Alpha  occ. eigenvalues --   -0.78312  -0.78277  -0.74243  -0.73568  -0.73298
 Alpha  occ. eigenvalues --   -0.72493  -0.70860  -0.69538  -0.69208  -0.69141
 Alpha  occ. eigenvalues --   -0.68982  -0.66227  -0.65850  -0.64789  -0.64434
 Alpha  occ. eigenvalues --   -0.64000  -0.62908  -0.61551  -0.61212  -0.60755
 Alpha  occ. eigenvalues --   -0.60155  -0.59595  -0.59278  -0.58071  -0.57659
 Alpha  occ. eigenvalues --   -0.57240  -0.56372  -0.55446  -0.55043  -0.54695
 Alpha  occ. eigenvalues --   -0.54102  -0.53889  -0.53685  -0.52871  -0.52428
 Alpha  occ. eigenvalues --   -0.52296  -0.51649  -0.50960  -0.50202  -0.49980
 Alpha  occ. eigenvalues --   -0.49790  -0.49392  -0.49063  -0.48955  -0.48181
 Alpha  occ. eigenvalues --   -0.47178  -0.47041  -0.46413  -0.46177  -0.45808
 Alpha  occ. eigenvalues --   -0.45544  -0.45058  -0.44146  -0.43961  -0.43414
 Alpha  occ. eigenvalues --   -0.42424  -0.41924  -0.41796  -0.41461  -0.40923
 Alpha  occ. eigenvalues --   -0.40190  -0.40126  -0.39960  -0.39889  -0.39353
 Alpha  occ. eigenvalues --   -0.38110  -0.37717  -0.35271  -0.34300  -0.32381
 Alpha  occ. eigenvalues --   -0.29174  -0.27392
 Alpha virt. eigenvalues --   -0.11176  -0.10813  -0.10146  -0.08850  -0.08055
 Alpha virt. eigenvalues --   -0.07337  -0.04498  -0.04294  -0.02956  -0.02548
 Alpha virt. eigenvalues --   -0.01689  -0.01398  -0.00830  -0.00651   0.00024

 Mulliken charges:
               1
     1  N   -0.702268
     2  H    0.318779
     3  H    0.306657
     4  C   -0.076328
     5  H    0.149453
     6  C    0.616345
     7  C   -0.338717
     8  H    0.184204
     9  H    0.146181
    10  O   -0.587644
    11  C    0.059119
    12  C   -0.002985
    13  H    0.150939
    14  C    0.068680
    15  C    0.310873
    16  C   -0.233558
    17  H    0.134695
    18  N   -0.686638
    19  H    0.335712
    20  C   -0.150833
    21  H    0.141399
    22  C   -0.163986
    23  H    0.136729
    24  C   -0.139048
    25  H    0.136403
    26  N   -0.616100
    27  H    0.363473
    28  C   -0.057186
    29  H    0.185640
    30  C    0.592788
    31  C   -0.100348
    32  H    0.171606
    33  O   -0.487411
    34  C   -0.266479
    35  H    0.153315
    36  H    0.159887
    37  C   -0.482491
    38  H    0.146911
    39  H    0.176812
    40  H    0.161803
    41  C   -0.458664
    42  H    0.154506
    43  H    0.150344
    44  H    0.138514
    45  N   -0.661738
    46  H    0.374239
    47  C   -0.042328
    48  H    0.216447
    49  C    0.589830
    50  C   -0.297511
    51  H    0.155223
    52  H    0.195858
    53  O   -0.469929
    54  C   -0.322352
    55  H    0.211696
    56  H    0.182173
    57  C   -0.162714
    58  H    0.179473
    59  H    0.178241
    60  N   -0.630450
    61  H    0.400689
    62  N   -0.765668
    63  H    0.378107
    64  H    0.385644
    65  N   -0.802882
    66  H    0.439006
    67  H    0.363474
    68  C    0.816110
    69  O   -0.547164
    70  H    0.435445
 Sum of Mulliken charges =   1.00000

 Dipole moment (field-independent basis, Debye):
    X=              6.1684    Y=             15.9141    Z=              0.4728  Tot=             17.0743
 Quadrupole moment (field-independent basis, Debye-Ang):
   XX=           -125.3834   YY=            -86.6061   ZZ=           -206.5652
   XY=             25.4828   XZ=              5.0145   YZ=              1.3727

 Normal termination of Gaussian 16 at Thu May 26 00:20:42 2022.
