 Gaussian 16, Revision C.01,
 Gaussian 16:  ES64L-G16RevC.01  3-Jul-2019

 -------------------------------------------------------------------
 # B3LYP/6-31G* guess=read geom=check nosymm integral(ultrafinegrid)
 -------------------------------------------------------------------

 ------------------------------------------------------
 Candidate Structure: Conf:962 Charge calc in gas phase
 ------------------------------------------------------
 Structure from the checkpoint file:  "conf-962.chk"
 Charge =  1 Multiplicity = 1

                          Input orientation:
 ---------------------------------------------------------------------
 Center     Atomic      Atomic             Coordinates (Angstroms)
 Number     Number       Type             X           Y           Z
 ---------------------------------------------------------------------
      1          7           0        0.279674   -3.941732    1.958474
      2          1           0       -0.406922   -4.339421    1.319024
      3          1           0        1.163970   -3.915006    1.449309
      4          6           0       -0.080197   -2.569913    2.308231
      5          1           0       -1.138970   -2.553882    2.592536
      6          6           0        0.159613   -1.611787    1.133138
      7          6           0        0.764118   -2.085416    3.528450
      8          1           0        1.773389   -2.497651    3.394453
      9          1           0        0.871560   -0.993601    3.486708
     10          8           0        1.152746   -1.697686    0.414656
     11          6           0        0.203941   -2.446182    4.874632
     12          6           0       -0.264193   -1.528699    5.785016
     13          1           0       -0.312849   -0.450235    5.707704
     14          6           0        0.069414   -3.744655    5.499894
     15          6           0       -0.486767   -3.527851    6.791209
     16          6           0        0.371460   -5.063008    5.109882
     17          1           0        0.767857   -5.253366    4.118364
     18          7           0       -0.686212   -2.168450    6.931948
     19          1           0       -1.042134   -1.712969    7.757673
     20          6           0       -0.429136   -5.860376    7.272730
     21          1           0       -0.613729   -6.695487    7.942784
     22          6           0       -0.743809   -4.572247    7.686137
     23          1           0       -1.170549   -4.383103    8.667782
     24          6           0        0.122986   -6.101535    5.997550
     25          1           0        0.353147   -7.122476    5.705153
     26          7           0       -0.753151   -0.596601    0.960781
     27          1           0       -1.633522   -0.662126    1.454551
     28          6           0       -0.705451    0.274029   -0.218324
     29          1           0       -1.386898    1.107179    0.005369
     30          6           0        0.713772    0.882825   -0.328519
     31          6           0       -1.162275   -0.379756   -1.551692
     32          1           0       -0.305617   -0.935102   -1.948770
     33          8           0        1.313571    0.977806   -1.407430
     34          6           0       -1.552682    0.721816   -2.565077
     35          1           0       -2.541346    1.119720   -2.292862
     36          1           0       -0.849418    1.558199   -2.480893
     37          6           0       -2.326220   -1.357103   -1.331801
     38          1           0       -3.184966   -0.862311   -0.858283
     39          1           0       -2.671779   -1.764503   -2.286583
     40          1           0       -2.035655   -2.206680   -0.707064
     41          6           0       -1.574955    0.246023   -4.022197
     42          1           0       -1.863180    1.059905   -4.698100
     43          1           0       -2.288735   -0.568800   -4.180223
     44          1           0       -0.587632   -0.121537   -4.329952
     45          7           0        1.211489    1.371781    0.828017
     46          1           0        0.718786    1.151922    1.689184
     47          6           0        2.623033    1.679690    1.004459
     48          1           0        3.213485    0.808240    0.683835
     49          6           0        2.855365    1.804016    2.508360
     50          6           0        3.104374    2.925023    0.200661
     51          1           0        2.217086    3.418303   -0.207780
     52          1           0        3.591014    3.643197    0.868575
     53          8           0        2.007617    1.608391    3.352059
     54          6           0        4.069114    2.526091   -0.923006
     55          1           0        3.674955    1.650124   -1.444290
     56          1           0        5.027927    2.212082   -0.490512
     57          6           0        4.400056    3.631608   -1.928145
     58          1           0        4.958414    4.433145   -1.437078
     59          1           0        5.037772    3.227812   -2.722376
     60          7           0        3.247448    4.323314   -2.564262
     61          1           0        3.232792    5.330380   -2.470699
     62          7           0        2.115952    2.529384   -3.536125
     63          1           0        1.619091    2.169278   -4.340738
     64          1           0        2.017741    1.970739   -2.673581
     65          7           0        1.900213    4.667634   -4.413409
     66          1           0        2.341248    5.550383   -4.630086
     67          1           0        1.088330    4.409771   -4.956856
     68          6           0        2.421861    3.825947   -3.499093
     69          8           0        4.129700    2.126776    2.784814
     70          1           0        4.220537    2.149418    3.757199
 ---------------------------------------------------------------------

 SCF Done:  E(RB3LYP) =  -1582.14793524     A.U. after    1 cycles

 Alpha  occ. eigenvalues --  -19.30496 -19.25100 -19.23135 -19.20392 -14.53268
 Alpha  occ. eigenvalues --  -14.52820 -14.51180 -14.46112 -14.45420 -14.42281
 Alpha  occ. eigenvalues --  -14.38216 -10.48907 -10.43113 -10.39992 -10.36698
 Alpha  occ. eigenvalues --  -10.36450 -10.34977 -10.33310 -10.30531 -10.30463
 Alpha  occ. eigenvalues --  -10.29453 -10.27758 -10.26976 -10.26422 -10.26157
 Alpha  occ. eigenvalues --  -10.25776 -10.25759 -10.25380 -10.22902 -10.22531
 Alpha  occ. eigenvalues --  -10.22223 -10.22017 -10.21592 -10.21372  -1.21580
 Alpha  occ. eigenvalues --   -1.17210  -1.14661  -1.12706  -1.12122  -1.06548
 Alpha  occ. eigenvalues --   -1.05122  -1.03477  -1.02099  -1.01193  -0.95610
 Alpha  occ. eigenvalues --   -0.92191  -0.89640  -0.87577  -0.87347  -0.84737
 Alpha  occ. eigenvalues --   -0.83127  -0.81718  -0.79943  -0.78831  -0.78347
 Alpha  occ. eigenvalues --   -0.77052  -0.75503  -0.74647  -0.73525  -0.73022
 Alpha  occ. eigenvalues --   -0.72369  -0.70313  -0.69657  -0.68336  -0.67549
 Alpha  occ. eigenvalues --   -0.66051  -0.65945  -0.65443  -0.65233  -0.63124
 Alpha  occ. eigenvalues --   -0.62263  -0.61329  -0.60771  -0.60586  -0.59942
 Alpha  occ. eigenvalues --   -0.58891  -0.58168  -0.57876  -0.57485  -0.56205
 Alpha  occ. eigenvalues --   -0.55871  -0.55423  -0.54624  -0.54284  -0.53946
 Alpha  occ. eigenvalues --   -0.52785  -0.52374  -0.52271  -0.51568  -0.51291
 Alpha  occ. eigenvalues --   -0.50838  -0.50700  -0.49491  -0.49185  -0.48473
 Alpha  occ. eigenvalues --   -0.48168  -0.47485  -0.47126  -0.46583  -0.46451
 Alpha  occ. eigenvalues --   -0.46203  -0.45953  -0.45832  -0.45474  -0.45053
 Alpha  occ. eigenvalues --   -0.44477  -0.43930  -0.43267  -0.42700  -0.42393
 Alpha  occ. eigenvalues --   -0.41927  -0.41753  -0.41544  -0.41303  -0.40894
 Alpha  occ. eigenvalues --   -0.38847  -0.38655  -0.37390  -0.37206  -0.36905
 Alpha  occ. eigenvalues --   -0.36392  -0.34816  -0.34076  -0.31329  -0.30284
 Alpha  occ. eigenvalues --   -0.26021  -0.24235
 Alpha virt. eigenvalues --   -0.14259  -0.10105  -0.09379  -0.08633  -0.06811
 Alpha virt. eigenvalues --   -0.05532  -0.04667  -0.04462  -0.02583  -0.01951
 Alpha virt. eigenvalues --   -0.01751  -0.00991  -0.00302   0.00999   0.01231

 Mulliken charges:
               1
     1  N   -0.687370
     2  H    0.305842
     3  H    0.317792
     4  C   -0.072086
     5  H    0.145191
     6  C    0.591181
     7  C   -0.353108
     8  H    0.161290
     9  H    0.145029
    10  O   -0.528711
    11  C    0.070544
    12  C   -0.011457
    13  H    0.142496
    14  C    0.071274
    15  C    0.308359
    16  C   -0.200876
    17  H    0.153105
    18  N   -0.687072
    19  H    0.329026
    20  C   -0.148525
    21  H    0.129210
    22  C   -0.164900
    23  H    0.124794
    24  C   -0.144421
    25  H    0.123919
    26  N   -0.632478
    27  H    0.340883
    28  C   -0.053028
    29  H    0.166103
    30  C    0.656754
    31  C   -0.059193
    32  H    0.167003
    33  O   -0.581558
    34  C   -0.260233
    35  H    0.138188
    36  H    0.113664
    37  C   -0.468552
    38  H    0.139766
    39  H    0.166688
    40  H    0.151184
    41  C   -0.457315
    42  H    0.138935
    43  H    0.168919
    44  H    0.140470
    45  N   -0.613400
    46  H    0.372171
    47  C   -0.014413
    48  H    0.216562
    49  C    0.577855
    50  C   -0.275092
    51  H    0.159754
    52  H    0.174287
    53  O   -0.456377
    54  C   -0.307287
    55  H    0.185202
    56  H    0.181714
    57  C   -0.159557
    58  H    0.183739
    59  H    0.196321
    60  N   -0.595405
    61  H    0.363107
    62  N   -0.763263
    63  H    0.370648
    64  H    0.454773
    65  N   -0.751086
    66  H    0.380598
    67  H    0.381621
    68  C    0.766699
    69  O   -0.560656
    70  H    0.434759
 Sum of Mulliken charges =   1.00000

 Dipole moment (field-independent basis, Debye):
    X=              7.8925    Y=             17.7853    Z=             -9.0973  Tot=             21.4795
 Quadrupole moment (field-independent basis, Debye-Ang):
   XX=           -152.3892   YY=           -124.7695   ZZ=           -114.3882
   XY=             52.3203   XZ=            -24.5919   YZ=            -44.8135

 Normal termination of Gaussian 16 at Thu May 26 00:23:41 2022.
