 Gaussian 16, Revision C.01,
 Gaussian 16:  ES64L-G16RevC.01  3-Jul-2019

 -------------------------------------------------------------------
 # B3LYP/6-31G* guess=read geom=check nosymm integral(ultrafinegrid)
 -------------------------------------------------------------------

 ------------------------------------------------------
 Candidate Structure: Conf:472 Charge calc in gas phase
 ------------------------------------------------------
 Structure from the checkpoint file:  "conf-472.chk"
 Charge =  1 Multiplicity = 1

                          Input orientation:
 ---------------------------------------------------------------------
 Center     Atomic      Atomic             Coordinates (Angstroms)
 Number     Number       Type             X           Y           Z
 ---------------------------------------------------------------------
      1          7           0       -1.442097   -3.110375    1.350789
      2          1           0       -1.338715   -3.474183    0.404051
      3          1           0       -1.797707   -3.870774    1.928413
      4          6           0       -0.133378   -2.661465    1.843132
      5          1           0       -0.267489   -2.413069    2.903965
      6          6           0        0.176601   -1.355832    1.085454
      7          6           0        1.022385   -3.698012    1.779582
      8          1           0        1.923905   -3.231990    2.195385
      9          1           0        0.750685   -4.495303    2.484852
     10          8           0        0.901624   -1.333671    0.095280
     11          6           0        1.348986   -4.302780    0.439350
     12          6           0        0.591431   -5.195296   -0.282693
     13          1           0       -0.360623   -5.649394   -0.043528
     14          6           0        2.560535   -4.109841   -0.321976
     15          6           0        2.457822   -4.901819   -1.502673
     16          6           0        3.744143   -3.385085   -0.102002
     17          1           0        3.871220   -2.798163    0.804074
     18          7           0        1.239440   -5.538441   -1.455926
     19          1           0        0.906717   -6.216645   -2.124255
     20          6           0        4.640021   -4.241166   -2.209391
     21          1           0        5.467210   -4.304510   -2.911213
     22          6           0        3.479165   -4.967038   -2.456094
     23          1           0        3.381575   -5.581120   -3.347052
     24          6           0        4.775587   -3.462144   -1.038207
     25          1           0        5.719672   -2.960485   -0.836802
     26          7           0       -0.468608   -0.257986    1.581286
     27          1           0       -1.162442   -0.446810    2.291823
     28          6           0       -0.570821    1.052074    0.928150
     29          1           0       -1.334787    1.594072    1.496725
     30          6           0        0.761530    1.816236    1.105258
     31          6           0       -1.064331    0.963951   -0.555565
     32          1           0       -0.292856    0.415498   -1.105300
     33          8           0        1.861218    1.250533    1.127677
     34          6           0       -1.229000    2.341345   -1.242002
     35          1           0       -0.274913    2.882704   -1.225499
     36          1           0       -1.436557    2.142909   -2.301360
     37          6           0       -2.366258    0.147972   -0.626542
     38          1           0       -3.168385    0.611872   -0.040267
     39          1           0       -2.710834    0.086286   -1.664860
     40          1           0       -2.235047   -0.870996   -0.254050
     41          6           0       -2.337178    3.256418   -0.699990
     42          1           0       -2.347265    4.204705   -1.247260
     43          1           0       -2.214205    3.503065    0.362551
     44          1           0       -3.327681    2.805229   -0.812376
     45          7           0        0.672910    3.159745    1.229436
     46          1           0       -0.229678    3.610471    1.347111
     47          6           0        1.813783    3.992209    1.601507
     48          1           0        2.438275    3.430721    2.306802
     49          6           0        1.224544    5.192304    2.347405
     50          6           0        2.720045    4.476917    0.436243
     51          1           0        2.087315    4.930087   -0.338491
     52          1           0        3.333693    5.284978    0.844530
     53          8           0        0.038222    5.430177    2.422034
     54          6           0        3.667846    3.418026   -0.176283
     55          1           0        3.912600    2.657120    0.570207
     56          1           0        4.607711    3.913491   -0.450475
     57          6           0        3.109729    2.736991   -1.435058
     58          1           0        2.155187    2.248518   -1.237885
     59          1           0        2.929470    3.482393   -2.217826
     60          7           0        4.014692    1.729934   -2.005789
     61          1           0        4.846000    2.068926   -2.471917
     62          7           0        3.080027   -0.145425   -0.979386
     63          1           0        2.888688   -1.141927   -0.985561
     64          1           0        2.593665    0.370401   -0.236865
     65          7           0        4.743207   -0.398903   -2.564436
     66          1           0        5.086682   -0.086513   -3.461181
     67          1           0        4.726511   -1.401192   -2.395859
     68          6           0        3.929169    0.395891   -1.833327
     69          8           0        2.179674    5.952228    2.904634
     70          1           0        1.735980    6.696784    3.355391
 ---------------------------------------------------------------------

 SCF Done:  E(RB3LYP) =  -1582.16838675     A.U. after    1 cycles

 Alpha  occ. eigenvalues --  -19.30160 -19.24790 -19.22718 -19.20666 -14.49922
 Alpha  occ. eigenvalues --  -14.48911 -14.47049 -14.46897 -14.46146 -14.45223
 Alpha  occ. eigenvalues --  -14.40848 -10.45290 -10.42791 -10.39830 -10.37635
 Alpha  occ. eigenvalues --  -10.34792 -10.34347 -10.33668 -10.31256 -10.30384
 Alpha  occ. eigenvalues --  -10.30122 -10.29994 -10.29566 -10.28341 -10.27471
 Alpha  occ. eigenvalues --  -10.27463 -10.27358 -10.27265 -10.27115 -10.27082
 Alpha  occ. eigenvalues --  -10.26885 -10.26632 -10.25935 -10.25280  -1.21298
 Alpha  occ. eigenvalues --   -1.14766  -1.13713  -1.12472  -1.12283  -1.06110
 Alpha  occ. eigenvalues --   -1.03576  -1.03269  -1.01717  -1.01106  -0.97708
 Alpha  occ. eigenvalues --   -0.92395  -0.91198  -0.89629  -0.87943  -0.86447
 Alpha  occ. eigenvalues --   -0.83350  -0.82369  -0.81775  -0.80353  -0.79851
 Alpha  occ. eigenvalues --   -0.78905  -0.75563  -0.74234  -0.72764  -0.71972
 Alpha  occ. eigenvalues --   -0.71208  -0.71052  -0.70647  -0.68868  -0.67828
 Alpha  occ. eigenvalues --   -0.67679  -0.67323  -0.64703  -0.64511  -0.62848
 Alpha  occ. eigenvalues --   -0.62446  -0.61570  -0.61197  -0.60589  -0.59966
 Alpha  occ. eigenvalues --   -0.58763  -0.58621  -0.57966  -0.57375  -0.56965
 Alpha  occ. eigenvalues --   -0.56489  -0.55856  -0.55600  -0.55081  -0.54348
 Alpha  occ. eigenvalues --   -0.53955  -0.53112  -0.53013  -0.52285  -0.51912
 Alpha  occ. eigenvalues --   -0.51486  -0.51246  -0.51081  -0.50525  -0.49982
 Alpha  occ. eigenvalues --   -0.49908  -0.49403  -0.48816  -0.48190  -0.47625
 Alpha  occ. eigenvalues --   -0.47437  -0.46961  -0.46596  -0.45943  -0.45658
 Alpha  occ. eigenvalues --   -0.45335  -0.45281  -0.44772  -0.44127  -0.43735
 Alpha  occ. eigenvalues --   -0.42245  -0.42025  -0.41774  -0.41659  -0.41282
 Alpha  occ. eigenvalues --   -0.41098  -0.39744  -0.38877  -0.38157  -0.37373
 Alpha  occ. eigenvalues --   -0.36570  -0.36110  -0.34504  -0.33886  -0.32517
 Alpha  occ. eigenvalues --   -0.30854  -0.28499
 Alpha virt. eigenvalues --   -0.10131  -0.10012  -0.09577  -0.09077  -0.07042
 Alpha virt. eigenvalues --   -0.06646  -0.05126  -0.03199  -0.02476  -0.01589
 Alpha virt. eigenvalues --   -0.01242  -0.01102  -0.00476   0.00229   0.00646

 Mulliken charges:
               1
     1  N   -0.720685
     2  H    0.315889
     3  H    0.315649
     4  C   -0.086529
     5  H    0.150946
     6  C    0.650406
     7  C   -0.366154
     8  H    0.157318
     9  H    0.158183
    10  O   -0.543577
    11  C    0.113259
    12  C   -0.016341
    13  H    0.157285
    14  C    0.090750
    15  C    0.320436
    16  C   -0.244839
    17  H    0.143699
    18  N   -0.687426
    19  H    0.341030
    20  C   -0.165076
    21  H    0.140783
    22  C   -0.155826
    23  H    0.144943
    24  C   -0.194926
    25  H    0.141343
    26  N   -0.597714
    27  H    0.351216
    28  C   -0.060019
    29  H    0.155255
    30  C    0.628626
    31  C   -0.089197
    32  H    0.162584
    33  O   -0.555770
    34  C   -0.282156
    35  H    0.129626
    36  H    0.153097
    37  C   -0.474420
    38  H    0.148862
    39  H    0.156955
    40  H    0.177402
    41  C   -0.463121
    42  H    0.164646
    43  H    0.137084
    44  H    0.169782
    45  N   -0.609347
    46  H    0.373913
    47  C   -0.029210
    48  H    0.205071
    49  C    0.582694
    50  C   -0.289987
    51  H    0.158621
    52  H    0.190228
    53  O   -0.456573
    54  C   -0.263346
    55  H    0.180388
    56  H    0.151019
    57  C   -0.169393
    58  H    0.188587
    59  H    0.178680
    60  N   -0.607689
    61  H    0.353191
    62  N   -0.805876
    63  H    0.400660
    64  H    0.452642
    65  N   -0.778725
    66  H    0.363415
    67  H    0.381344
    68  C    0.798039
    69  O   -0.555718
    70  H    0.434098
 Sum of Mulliken charges =   1.00000

 Dipole moment (field-independent basis, Debye):
    X=             10.1747    Y=              1.7030    Z=             -3.7206  Tot=             10.9667
 Quadrupole moment (field-independent basis, Debye-Ang):
   XX=           -142.7671   YY=           -114.7857   ZZ=           -159.1458
   XY=             22.6567   XZ=            -31.3253   YZ=             14.8136

 Normal termination of Gaussian 16 at Thu May 26 00:20:24 2022.
