 Gaussian 16, Revision C.01,
 Gaussian 16:  ES64L-G16RevC.01  3-Jul-2019

 -------------------------------------------------------------------
 # B3LYP/6-31G* guess=read geom=check nosymm integral(ultrafinegrid)
 -------------------------------------------------------------------

 ------------------------------------------------------
 Candidate Structure: Conf:862 Charge calc in gas phase
 ------------------------------------------------------
 Structure from the checkpoint file:  "conf-862.chk"
 Charge =  1 Multiplicity = 1

                          Input orientation:
 ---------------------------------------------------------------------
 Center     Atomic      Atomic             Coordinates (Angstroms)
 Number     Number       Type             X           Y           Z
 ---------------------------------------------------------------------
      1          7           0        0.540125   -2.361243   -2.651666
      2          1           0        0.243630   -3.022038   -3.367139
      3          1           0        0.439724   -1.425522   -3.040050
      4          6           0       -0.342784   -2.474536   -1.491689
      5          1           0       -1.410410   -2.554443   -1.776449
      6          6           0       -0.257097   -1.149568   -0.704357
      7          6           0        0.004337   -3.754467   -0.687742
      8          1           0       -0.811510   -3.978610    0.012354
      9          1           0       -0.018116   -4.584539   -1.406020
     10          8           0        0.043569   -0.099201   -1.282754
     11          6           0        1.315611   -3.720120    0.049950
     12          6           0        2.570165   -3.589230   -0.494233
     13          1           0        2.852963   -3.497938   -1.532405
     14          6           0        1.498057   -3.778492    1.480648
     15          6           0        2.894867   -3.664190    1.733979
     16          6           0        0.625892   -3.909903    2.577469
     17          1           0       -0.443816   -4.048868    2.426978
     18          7           0        3.518070   -3.547368    0.509659
     19          1           0        4.515438   -3.545423    0.361100
     20          6           0        2.533290   -3.788688    4.091178
     21          1           0        2.915435   -3.818587    5.107851
     22          6           0        3.424770   -3.671564    3.027797
     23          1           0        4.496209   -3.604867    3.199885
     24          6           0        1.145961   -3.907411    3.867496
     25          1           0        0.478431   -4.024362    4.716646
     26          7           0       -0.664901   -1.206960    0.591019
     27          1           0       -0.718930   -2.133409    0.990496
     28          6           0       -0.578752   -0.139188    1.589093
     29          1           0       -1.169615   -0.502251    2.439154
     30          6           0        0.901295   -0.045689    2.060716
     31          6           0       -1.236385    1.205710    1.139064
     32          1           0       -0.597782    1.649475    0.369239
     33          8           0        1.833619   -0.314912    1.293064
     34          6           0       -1.392722    2.217921    2.311508
     35          1           0       -2.366068    2.709459    2.200959
     36          1           0       -1.457309    1.693052    3.275503
     37          6           0       -2.611333    0.926098    0.507166
     38          1           0       -3.289126    0.448678    1.226200
     39          1           0       -3.070516    1.871109    0.198288
     40          1           0       -2.540755    0.287011   -0.374692
     41          6           0       -0.324103    3.313918    2.386384
     42          1           0       -0.542736    4.012315    3.200923
     43          1           0       -0.292813    3.888937    1.452953
     44          1           0        0.674801    2.907344    2.569029
     45          7           0        1.090037    0.310664    3.347458
     46          1           0        0.283501    0.565467    3.907324
     47          6           0        2.349823    0.368407    4.095803
     48          1           0        2.506493   -0.607423    4.581967
     49          6           0        2.111598    1.361358    5.237711
     50          6           0        3.630579    0.639369    3.274186
     51          1           0        4.449722    0.730943    3.993554
     52          1           0        3.814013   -0.261443    2.686620
     53          8           0        1.028075    1.829595    5.513722
     54          6           0        3.585101    1.864810    2.340787
     55          1           0        3.900385    2.773466    2.867987
     56          1           0        2.560957    2.039631    2.004145
     57          6           0        4.465324    1.642619    1.095896
     58          1           0        5.526579    1.770688    1.328306
     59          1           0        4.341905    0.620337    0.728996
     60          7           0        4.163977    2.546361   -0.023860
     61          1           0        4.565720    3.474107    0.000556
     62          7           0        2.430215    1.258545   -0.895528
     63          1           0        1.706436    1.062830   -1.581666
     64          1           0        2.323188    0.670412   -0.056596
     65          7           0        3.049427    3.243811   -1.931087
     66          1           0        3.827022    3.830862   -2.198849
     67          1           0        2.356788    3.080192   -2.648177
     68          6           0        3.204979    2.328241   -0.943225
     69          8           0        3.233386    1.610651    5.932938
     70          1           0        2.988779    2.196298    6.675719
 ---------------------------------------------------------------------

 SCF Done:  E(RB3LYP) =  -1582.15492339     A.U. after    1 cycles

 Alpha  occ. eigenvalues --  -19.30527 -19.25018 -19.22826 -19.21516 -14.51157
 Alpha  occ. eigenvalues --  -14.50918 -14.48532 -14.47354 -14.45619 -14.45296
 Alpha  occ. eigenvalues --  -14.39461 -10.46845 -10.43044 -10.40146 -10.38450
 Alpha  occ. eigenvalues --  -10.35311 -10.35182 -10.33887 -10.31060 -10.30156
 Alpha  occ. eigenvalues --  -10.29820 -10.29279 -10.28819 -10.28719 -10.27551
 Alpha  occ. eigenvalues --  -10.27173 -10.26542 -10.26280 -10.26032 -10.25948
 Alpha  occ. eigenvalues --  -10.25945 -10.25659 -10.25552 -10.25415  -1.21595
 Alpha  occ. eigenvalues --   -1.15360  -1.14763  -1.12874  -1.12645  -1.05126
 Alpha  occ. eigenvalues --   -1.04922  -1.03719  -1.02866  -1.02142  -0.96942
 Alpha  occ. eigenvalues --   -0.91759  -0.91240  -0.89953  -0.87289  -0.87057
 Alpha  occ. eigenvalues --   -0.83597  -0.81706  -0.81138  -0.80791  -0.79654
 Alpha  occ. eigenvalues --   -0.78210  -0.76801  -0.74043  -0.73420  -0.72646
 Alpha  occ. eigenvalues --   -0.72307  -0.70932  -0.69512  -0.69396  -0.68323
 Alpha  occ. eigenvalues --   -0.67272  -0.66608  -0.65401  -0.64227  -0.64011
 Alpha  occ. eigenvalues --   -0.62986  -0.62088  -0.61400  -0.60412  -0.60184
 Alpha  occ. eigenvalues --   -0.59761  -0.59020  -0.58269  -0.57592  -0.57170
 Alpha  occ. eigenvalues --   -0.56893  -0.56547  -0.55064  -0.54765  -0.54255
 Alpha  occ. eigenvalues --   -0.54119  -0.53258  -0.52717  -0.52119  -0.51716
 Alpha  occ. eigenvalues --   -0.51206  -0.50948  -0.50655  -0.50246  -0.50145
 Alpha  occ. eigenvalues --   -0.49883  -0.49713  -0.48808  -0.48151  -0.47736
 Alpha  occ. eigenvalues --   -0.47626  -0.47473  -0.46167  -0.45821  -0.45541
 Alpha  occ. eigenvalues --   -0.45118  -0.44792  -0.44572  -0.44253  -0.42642
 Alpha  occ. eigenvalues --   -0.42537  -0.42012  -0.41713  -0.41342  -0.40905
 Alpha  occ. eigenvalues --   -0.40806  -0.40736  -0.39505  -0.38631  -0.37577
 Alpha  occ. eigenvalues --   -0.36725  -0.35375  -0.35316  -0.34144  -0.31835
 Alpha  occ. eigenvalues --   -0.29569  -0.27486
 Alpha virt. eigenvalues --   -0.10910  -0.10182  -0.09772  -0.08619  -0.07260
 Alpha virt. eigenvalues --   -0.06989  -0.05026  -0.03542  -0.03181  -0.02468
 Alpha virt. eigenvalues --   -0.01540  -0.01293  -0.00617  -0.00068   0.00067

 Mulliken charges:
               1
     1  N   -0.726375
     2  H    0.307747
     3  H    0.312789
     4  C   -0.062032
     5  H    0.155062
     6  C    0.657783
     7  C   -0.393523
     8  H    0.144426
     9  H    0.171454
    10  O   -0.584876
    11  C    0.079560
    12  C    0.023804
    13  H    0.173867
    14  C    0.080569
    15  C    0.327776
    16  C   -0.243971
    17  H    0.124658
    18  N   -0.694957
    19  H    0.331357
    20  C   -0.165703
    21  H    0.135680
    22  C   -0.170674
    23  H    0.131016
    24  C   -0.143940
    25  H    0.133957
    26  N   -0.598248
    27  H    0.354000
    28  C   -0.078317
    29  H    0.159988
    30  C    0.657322
    31  C   -0.068341
    32  H    0.149329
    33  O   -0.566507
    34  C   -0.286064
    35  H    0.163925
    36  H    0.134543
    37  C   -0.458681
    38  H    0.149066
    39  H    0.158840
    40  H    0.164192
    41  C   -0.461230
    42  H    0.168620
    43  H    0.144172
    44  H    0.142269
    45  N   -0.618730
    46  H    0.370740
    47  C   -0.034130
    48  H    0.214911
    49  C    0.595025
    50  C   -0.289947
    51  H    0.182012
    52  H    0.188566
    53  O   -0.460801
    54  C   -0.280326
    55  H    0.159172
    56  H    0.166812
    57  C   -0.174460
    58  H    0.187057
    59  H    0.198141
    60  N   -0.603799
    61  H    0.357401
    62  N   -0.804893
    63  H    0.394837
    64  H    0.455012
    65  N   -0.763376
    66  H    0.371610
    67  H    0.377810
    68  C    0.804367
    69  O   -0.560319
    70  H    0.432975
 Sum of Mulliken charges =   1.00000

 Dipole moment (field-independent basis, Debye):
    X=             12.8255    Y=              6.1522    Z=              2.3430  Tot=             14.4164
 Quadrupole moment (field-independent basis, Debye-Ang):
   XX=           -128.7357   YY=           -159.3484   ZZ=           -144.6338
   XY=             32.7941   XZ=              8.8088   YZ=             -0.8186

 Normal termination of Gaussian 16 at Thu May 26 00:22:31 2022.
