 Gaussian 16, Revision C.01,
 Gaussian 16:  ES64L-G16RevC.01  3-Jul-2019

 -------------------------------------------------------------------
 # B3LYP/6-31G* guess=read geom=check nosymm integral(ultrafinegrid)
 -------------------------------------------------------------------

 ------------------------------------------------------
 Candidate Structure: Conf:197 Charge calc in gas phase
 ------------------------------------------------------
 Structure from the checkpoint file:  "conf-197.chk"
 Charge =  1 Multiplicity = 1

                          Input orientation:
 ---------------------------------------------------------------------
 Center     Atomic      Atomic             Coordinates (Angstroms)
 Number     Number       Type             X           Y           Z
 ---------------------------------------------------------------------
      1          7           0       -0.175444   -1.023942    3.866993
      2          1           0       -0.170547   -1.736492    4.596871
      3          1           0        0.651826   -1.185918    3.295084
      4          6           0       -1.401663   -1.196450    3.071317
      5          1           0       -1.372653   -2.091322    2.422122
      6          6           0       -1.537623    0.043549    2.173137
      7          6           0       -2.617216   -1.312919    4.010780
      8          1           0       -2.663047   -0.396078    4.605817
      9          1           0       -3.525877   -1.330501    3.396528
     10          8           0       -2.230360    1.012173    2.451721
     11          6           0       -2.564041   -2.521922    4.900207
     12          6           0       -2.276722   -2.537629    6.244580
     13          1           0       -2.063122   -1.710784    6.908788
     14          6           0       -2.797421   -3.897642    4.522647
     15          6           0       -2.634267   -4.691149    5.691982
     16          6           0       -3.142479   -4.535243    3.317404
     17          1           0       -3.288272   -3.955872    2.408884
     18          7           0       -2.311440   -3.833472    6.723942
     19          1           0       -2.180007   -4.100699    7.687057
     20          6           0       -3.135270   -6.679629    4.475553
     21          1           0       -3.273552   -7.756459    4.435444
     22          6           0       -2.798089   -6.080402    5.683462
     23          1           0       -2.671276   -6.670301    6.587500
     24          6           0       -3.307963   -5.914394    3.303713
     25          1           0       -3.580162   -6.414920    2.378442
     26          7           0       -0.801009   -0.023157    1.009665
     27          1           0       -0.101796   -0.751654    0.923520
     28          6           0       -0.537124    1.163323    0.215500
     29          1           0       -0.913756    2.015695    0.789659
     30          6           0        0.982603    1.294177    0.052834
     31          6           0       -1.248622    1.152168   -1.174869
     32          1           0       -0.899163    2.049744   -1.708286
     33          8           0        1.740493    0.327066    0.146574
     34          6           0       -2.781235    1.256253   -1.039538
     35          1           0       -3.206967    1.130265   -2.044424
     36          1           0       -3.144121    0.408619   -0.444503
     37          6           0       -0.860540   -0.083022   -2.001677
     38          1           0       -1.227922   -0.998214   -1.524135
     39          1           0       -1.304292   -0.028349   -3.001771
     40          1           0        0.226345   -0.183069   -2.114820
     41          6           0       -3.295076    2.567083   -0.433773
     42          1           0       -4.387048    2.614839   -0.504334
     43          1           0       -2.894219    3.439928   -0.966024
     44          1           0       -3.036720    2.648157    0.625953
     45          7           0        1.436558    2.544667   -0.261484
     46          1           0        0.818170    3.338991   -0.124729
     47          6           0        2.852913    2.869417   -0.217375
     48          1           0        3.347265    2.180253    0.477825
     49          6           0        2.980777    4.288847    0.333571
     50          6           0        3.562692    2.769104   -1.590600
     51          1           0        3.089536    3.474238   -2.286714
     52          1           0        4.602693    3.088844   -1.456218
     53          8           0        2.046149    5.034361    0.520389
     54          6           0        3.516356    1.350408   -2.169530
     55          1           0        2.472780    1.064478   -2.343167
     56          1           0        3.923194    0.637937   -1.443876
     57          6           0        4.289751    1.240226   -3.484667
     58          1           0        3.882036    1.936999   -4.229494
     59          1           0        5.350485    1.472110   -3.332571
     60          7           0        4.186031   -0.142154   -3.994943
     61          1           0        3.466749   -0.723147   -3.580565
     62          7           0        5.715000    0.109089   -5.720853
     63          1           0        6.417520   -0.288348   -6.328341
     64          1           0        5.655170    1.115920   -5.676107
     65          7           0        4.871195   -1.988323   -5.223052
     66          1           0        4.427619   -2.628513   -4.579410
     67          1           0        5.224006   -2.374532   -6.087373
     68          6           0        4.916244   -0.668105   -4.976064
     69          8           0        4.265022    4.616735    0.565283
     70          1           0        4.271454    5.529744    0.913202
 ---------------------------------------------------------------------

 SCF Done:  E(RB3LYP) =  -1582.13888332     A.U. after    1 cycles

 Alpha  occ. eigenvalues --  -19.29739 -19.24232 -19.21079 -19.16865 -14.55352
 Alpha  occ. eigenvalues --  -14.55139 -14.55100 -14.45256 -14.42032 -14.41612
 Alpha  occ. eigenvalues --  -14.36471 -10.51600 -10.42247 -10.38395 -10.37754
 Alpha  occ. eigenvalues --  -10.34309 -10.33700 -10.31975 -10.31019 -10.30107
 Alpha  occ. eigenvalues --  -10.27116 -10.26680 -10.25992 -10.25852 -10.25109
 Alpha  occ. eigenvalues --  -10.23870 -10.22894 -10.22822 -10.22557 -10.22333
 Alpha  occ. eigenvalues --  -10.22329 -10.22290 -10.22075 -10.21963  -1.20756
 Alpha  occ. eigenvalues --   -1.19998  -1.12911  -1.11869  -1.09149  -1.08693
 Alpha  occ. eigenvalues --   -1.08180  -1.02044  -1.01870  -0.98323  -0.93691
 Alpha  occ. eigenvalues --   -0.93492  -0.88535  -0.87664  -0.87069  -0.83726
 Alpha  occ. eigenvalues --   -0.83134  -0.80842  -0.79624  -0.78542  -0.77815
 Alpha  occ. eigenvalues --   -0.77505  -0.77199  -0.75289  -0.74231  -0.72523
 Alpha  occ. eigenvalues --   -0.71509  -0.69922  -0.68703  -0.68200  -0.67868
 Alpha  occ. eigenvalues --   -0.67462  -0.66111  -0.64182  -0.64087  -0.63123
 Alpha  occ. eigenvalues --   -0.62964  -0.62401  -0.61307  -0.59964  -0.59263
 Alpha  occ. eigenvalues --   -0.58439  -0.57557  -0.57100  -0.56876  -0.55573
 Alpha  occ. eigenvalues --   -0.54737  -0.54172  -0.53927  -0.53447  -0.52619
 Alpha  occ. eigenvalues --   -0.52235  -0.51461  -0.51123  -0.50880  -0.50305
 Alpha  occ. eigenvalues --   -0.49635  -0.49040  -0.48764  -0.47795  -0.47665
 Alpha  occ. eigenvalues --   -0.47255  -0.46936  -0.46506  -0.46282  -0.46155
 Alpha  occ. eigenvalues --   -0.46025  -0.45569  -0.45194  -0.44458  -0.43880
 Alpha  occ. eigenvalues --   -0.43691  -0.42710  -0.42039  -0.41830  -0.41614
 Alpha  occ. eigenvalues --   -0.41018  -0.40616  -0.39310  -0.38993  -0.38819
 Alpha  occ. eigenvalues --   -0.38382  -0.37932  -0.37219  -0.36970  -0.35455
 Alpha  occ. eigenvalues --   -0.34671  -0.31740  -0.31309  -0.30794  -0.28159
 Alpha  occ. eigenvalues --   -0.26170  -0.24273
 Alpha virt. eigenvalues --   -0.15227  -0.11186  -0.09215  -0.07530  -0.06990
 Alpha virt. eigenvalues --   -0.06636  -0.05840  -0.04982  -0.03497  -0.03034
 Alpha virt. eigenvalues --   -0.01881  -0.01348  -0.01333  -0.00687   0.00927

 Mulliken charges:
               1
     1  N   -0.723262
     2  H    0.312771
     3  H    0.290858
     4  C   -0.080991
     5  H    0.121885
     6  C    0.649884
     7  C   -0.341160
     8  H    0.177339
     9  H    0.155254
    10  O   -0.511296
    11  C    0.042999
    12  C   -0.006566
    13  H    0.160604
    14  C    0.083986
    15  C    0.311800
    16  C   -0.211434
    17  H    0.117611
    18  N   -0.687793
    19  H    0.331879
    20  C   -0.151220
    21  H    0.128876
    22  C   -0.161780
    23  H    0.128158
    24  C   -0.140469
    25  H    0.120791
    26  N   -0.613065
    27  H    0.335177
    28  C   -0.072374
    29  H    0.191579
    30  C    0.615718
    31  C   -0.066990
    32  H    0.116519
    33  O   -0.553879
    34  C   -0.249367
    35  H    0.133116
    36  H    0.155665
    37  C   -0.468794
    38  H    0.163989
    39  H    0.149808
    40  H    0.117871
    41  C   -0.473029
    42  H    0.156424
    43  H    0.128309
    44  H    0.190982
    45  N   -0.614395
    46  H    0.364393
    47  C   -0.037980
    48  H    0.205315
    49  C    0.584920
    50  C   -0.275921
    51  H    0.159491
    52  H    0.173546
    53  O   -0.446480
    54  C   -0.318966
    55  H    0.184299
    56  H    0.189505
    57  C   -0.144120
    58  H    0.185209
    59  H    0.188446
    60  N   -0.610697
    61  H    0.375315
    62  N   -0.756052
    63  H    0.390537
    64  H    0.397023
    65  N   -0.761890
    66  H    0.390838
    67  H    0.389618
    68  C    0.842576
    69  O   -0.563104
    70  H    0.432189
 Sum of Mulliken charges =   1.00000

 Dipole moment (field-independent basis, Debye):
    X=             24.4295    Y=             -2.0245    Z=            -20.1717  Tot=             31.7458
 Quadrupole moment (field-independent basis, Debye-Ang):
   XX=            -84.2760   YY=           -161.5258   ZZ=            -49.0719
   XY=              8.0155   XZ=           -111.4554   YZ=             -4.0831

 Normal termination of Gaussian 16 at Thu May 26 00:20:17 2022.
