 Gaussian 16, Revision C.01,
 Gaussian 16:  ES64L-G16RevC.01  3-Jul-2019

 -------------------------------------------------------------------
 # B3LYP/6-31G* guess=read geom=check nosymm integral(ultrafinegrid)
 -------------------------------------------------------------------

 ------------------------------------------------------
 Candidate Structure: Conf:879 Charge calc in gas phase
 ------------------------------------------------------
 Structure from the checkpoint file:  "conf-879.chk"
 Charge =  1 Multiplicity = 1

                          Input orientation:
 ---------------------------------------------------------------------
 Center     Atomic      Atomic             Coordinates (Angstroms)
 Number     Number       Type             X           Y           Z
 ---------------------------------------------------------------------
      1          7           0       -1.693083   -2.147359    2.644171
      2          1           0       -1.978352   -2.945761    2.076505
      3          1           0       -2.021182   -2.330873    3.589266
      4          6           0       -0.228785   -2.022423    2.623146
      5          1           0        0.062225   -1.462946    3.523498
      6          6           0        0.207858   -1.109534    1.460724
      7          6           0        0.567481   -3.351254    2.610308
      8          1           0        1.630399   -3.099459    2.543959
      9          1           0        0.415428   -3.842883    3.579210
     10          8           0        1.368562   -1.058829    1.047651
     11          6           0        0.184374   -4.289780    1.499669
     12          6           0        0.726200   -4.330306    0.235969
     13          1           0        1.515611   -3.724132   -0.186222
     14          6           0       -0.829046   -5.320097    1.538521
     15          6           0       -0.844913   -5.945312    0.260603
     16          6           0       -1.713560   -5.788817    2.529153
     17          1           0       -1.719165   -5.343913    3.521413
     18          7           0        0.111249   -5.316216   -0.510488
     19          1           0        0.351681   -5.564931   -1.457484
     20          6           0       -2.573664   -7.434587    0.950643
     21          1           0       -3.257858   -8.252627    0.744917
     22          6           0       -1.710669   -7.000103   -0.047768
     23          1           0       -1.708052   -7.465286   -1.029949
     24          6           0       -2.573801   -6.836248    2.227986
     25          1           0       -3.256925   -7.206229    2.987179
     26          7           0       -0.772579   -0.284561    1.002791
     27          1           0       -1.701048   -0.495234    1.363221
     28          6           0       -0.578573    0.642146   -0.109109
     29          1           0       -1.374786    1.391397    0.000687
     30          6           0        0.750700    1.399308    0.122919
     31          6           0       -0.684943    0.036149   -1.544955
     32          1           0        0.336042   -0.121577   -1.908932
     33          8           0        1.572411    1.589163   -0.780980
     34          6           0       -1.406647    1.007870   -2.508932
     35          1           0       -1.479872    0.510239   -3.484349
     36          1           0       -2.443524    1.132234   -2.161138
     37          6           0       -1.414572   -1.315628   -1.553683
     38          1           0       -2.438613   -1.229149   -1.169125
     39          1           0       -1.484491   -1.687293   -2.581885
     40          1           0       -0.893127   -2.072051   -0.961240
     41          6           0       -0.776805    2.390062   -2.716760
     42          1           0       -1.352541    2.957606   -3.456102
     43          1           0        0.253898    2.310146   -3.076448
     44          1           0       -0.759242    2.985666   -1.796223
     45          7           0        0.891231    1.915522    1.372296
     46          1           0        0.230993    1.574466    2.066915
     47          6           0        2.185036    2.274688    1.933962
     48          1           0        2.965525    1.775846    1.351539
     49          6           0        2.246436    1.697735    3.346949
     50          6           0        2.433962    3.804585    1.949601
     51          1           0        1.565574    4.272713    2.425381
     52          1           0        3.297183    4.022995    2.589806
     53          8           0        1.307483    1.210988    3.935710
     54          6           0        2.632137    4.398349    0.542579
     55          1           0        2.258696    5.429105    0.523669
     56          1           0        2.029239    3.843516   -0.180666
     57          6           0        4.090946    4.485709    0.062605
     58          1           0        4.120372    4.720093   -1.005921
     59          1           0        4.602550    5.297498    0.588120
     60          7           0        4.952583    3.299045    0.282365
     61          1           0        5.580232    3.331936    1.074860
     62          7           0        4.192801    1.958441   -1.453380
     63          1           0        4.416829    1.293560   -2.182515
     64          1           0        3.191771    2.005533   -1.184662
     65          7           0        6.308104    1.613914   -0.545941
     66          1           0        7.137490    2.015360   -0.131964
     67          1           0        6.390911    0.694131   -0.955583
     68          6           0        5.140531    2.285304   -0.576211
     69          8           0        3.482274    1.812843    3.872772
     70          1           0        3.444604    1.443156    4.776446
 ---------------------------------------------------------------------

 SCF Done:  E(RB3LYP) =  -1582.16231950     A.U. after    2 cycles

 Alpha  occ. eigenvalues --  -19.30861 -19.25323 -19.23271 -19.19554 -14.52780
 Alpha  occ. eigenvalues --  -14.52492 -14.50494 -14.45880 -14.43953 -14.43656
 Alpha  occ. eigenvalues --  -14.39801 -10.48353 -10.43257 -10.39821 -10.36138
 Alpha  occ. eigenvalues --  -10.36044 -10.35020 -10.32416 -10.30484 -10.30222
 Alpha  occ. eigenvalues --  -10.29830 -10.27806 -10.27556 -10.26701 -10.25565
 Alpha  occ. eigenvalues --  -10.25424 -10.24503 -10.24386 -10.24369 -10.24257
 Alpha  occ. eigenvalues --  -10.24219 -10.24171 -10.23794 -10.23460  -1.21784
 Alpha  occ. eigenvalues --   -1.16791  -1.14635  -1.12922  -1.11142  -1.06183
 Alpha  occ. eigenvalues --   -1.04600  -1.03735  -1.03347  -1.00486  -0.96459
 Alpha  occ. eigenvalues --   -0.91797  -0.89316  -0.88335  -0.87299  -0.85760
 Alpha  occ. eigenvalues --   -0.82236  -0.81226  -0.80272  -0.79041  -0.78850
 Alpha  occ. eigenvalues --   -0.78134  -0.76937  -0.74119  -0.73296  -0.72803
 Alpha  occ. eigenvalues --   -0.71664  -0.70028  -0.69436  -0.68523  -0.67797
 Alpha  occ. eigenvalues --   -0.66580  -0.65772  -0.65031  -0.64698  -0.64118
 Alpha  occ. eigenvalues --   -0.62297  -0.61585  -0.60972  -0.60190  -0.59487
 Alpha  occ. eigenvalues --   -0.59069  -0.58609  -0.57887  -0.57202  -0.56924
 Alpha  occ. eigenvalues --   -0.56853  -0.54957  -0.54738  -0.54083  -0.53674
 Alpha  occ. eigenvalues --   -0.52736  -0.52595  -0.52169  -0.51445  -0.50977
 Alpha  occ. eigenvalues --   -0.50472  -0.49737  -0.49495  -0.48904  -0.48625
 Alpha  occ. eigenvalues --   -0.48443  -0.48327  -0.48071  -0.47815  -0.47307
 Alpha  occ. eigenvalues --   -0.46782  -0.46452  -0.46178  -0.45636  -0.45205
 Alpha  occ. eigenvalues --   -0.43868  -0.43448  -0.42906  -0.42844  -0.42651
 Alpha  occ. eigenvalues --   -0.42120  -0.40976  -0.40743  -0.40616  -0.40147
 Alpha  occ. eigenvalues --   -0.39293  -0.38929  -0.38837  -0.38796  -0.37275
 Alpha  occ. eigenvalues --   -0.36477  -0.34765  -0.33444  -0.33082  -0.31420
 Alpha  occ. eigenvalues --   -0.27851  -0.25935
 Alpha virt. eigenvalues --   -0.13572  -0.10299  -0.08828  -0.08575  -0.06809
 Alpha virt. eigenvalues --   -0.05880  -0.05019  -0.03522  -0.03034  -0.02604
 Alpha virt. eigenvalues --   -0.01178  -0.00715  -0.00402   0.00439   0.01192

 Mulliken charges:
               1
     1  N   -0.760970
     2  H    0.333709
     3  H    0.321267
     4  C   -0.079484
     5  H    0.178579
     6  C    0.630861
     7  C   -0.350395
     8  H    0.165101
     9  H    0.148791
    10  O   -0.567120
    11  C    0.040290
    12  C    0.006344
    13  H    0.160213
    14  C    0.067517
    15  C    0.314961
    16  C   -0.217294
    17  H    0.118069
    18  N   -0.688981
    19  H    0.331645
    20  C   -0.150713
    21  H    0.137514
    22  C   -0.159793
    23  H    0.132119
    24  C   -0.137031
    25  H    0.132835
    26  N   -0.634068
    27  H    0.369685
    28  C   -0.031913
    29  H    0.173594
    30  C    0.648682
    31  C   -0.075127
    32  H    0.149553
    33  O   -0.574672
    34  C   -0.264051
    35  H    0.145870
    36  H    0.135908
    37  C   -0.466434
    38  H    0.142831
    39  H    0.151689
    40  H    0.164970
    41  C   -0.445502
    42  H    0.155815
    43  H    0.145699
    44  H    0.131119
    45  N   -0.583430
    46  H    0.367239
    47  C   -0.045741
    48  H    0.176411
    49  C    0.596442
    50  C   -0.270888
    51  H    0.177301
    52  H    0.155127
    53  O   -0.454592
    54  C   -0.294351
    55  H    0.176011
    56  H    0.189998
    57  C   -0.165221
    58  H    0.198108
    59  H    0.185365
    60  N   -0.590302
    61  H    0.363500
    62  N   -0.755525
    63  H    0.366281
    64  H    0.443940
    65  N   -0.752923
    66  H    0.379363
    67  H    0.382428
    68  C    0.764214
    69  O   -0.571761
    70  H    0.431326
 Sum of Mulliken charges =   1.00000

 Dipole moment (field-independent basis, Debye):
    X=             18.2288    Y=              7.3897    Z=              1.1600  Tot=             19.7039
 Quadrupole moment (field-independent basis, Debye-Ang):
   XX=            -74.9305   YY=           -145.0472   ZZ=           -167.0058
   XY=             52.2159   XZ=             -1.1972   YZ=             13.2324

 Normal termination of Gaussian 16 at Thu May 26 00:22:40 2022.
