 Gaussian 16, Revision C.01,
 Gaussian 16:  ES64L-G16RevC.01  3-Jul-2019

 -------------------------------------------------------------------
 # B3LYP/6-31G* guess=read geom=check nosymm integral(ultrafinegrid)
 -------------------------------------------------------------------

 ------------------------------------------------------
 Candidate Structure: Conf:966 Charge calc in gas phase
 ------------------------------------------------------
 Structure from the checkpoint file:  "conf-966.chk"
 Charge =  1 Multiplicity = 1

                          Input orientation:
 ---------------------------------------------------------------------
 Center     Atomic      Atomic             Coordinates (Angstroms)
 Number     Number       Type             X           Y           Z
 ---------------------------------------------------------------------
      1          7           0       -1.088461   -3.431686    2.134169
      2          1           0       -1.189424   -4.031074    2.951868
      3          1           0       -1.989342   -3.432260    1.659713
      4          6           0       -0.730818   -2.077871    2.570415
      5          1           0       -1.581417   -1.521489    3.007775
      6          6           0       -0.227873   -1.317708    1.334442
      7          6           0        0.395700   -2.121040    3.627840
      8          1           0        1.268644   -2.582606    3.154758
      9          1           0        0.672532   -1.085297    3.861051
     10          8           0        0.903426   -1.430910    0.877926
     11          6           0        0.023429   -2.849104    4.888446
     12          6           0       -0.516735   -2.293402    6.023988
     13          1           0       -0.756708   -1.260118    6.237677
     14          6           0        0.157091   -4.264556    5.155851
     15          6           0       -0.325274   -4.491352    6.474716
     16          6           0        0.647854   -5.358707    4.416837
     17          1           0        1.018235   -5.218010    3.404909
     18          7           0       -0.733278   -3.271001    6.974092
     19          1           0       -1.092603   -3.110884    7.902425
     20          6           0        0.157293   -6.819285    6.306983
     21          1           0        0.167083   -7.818226    6.733557
     22          6           0       -0.332294   -5.760890    7.062479
     23          1           0       -0.704716   -5.914893    8.071793
     24          6           0        0.642959   -6.620072    4.997814
     25          1           0        1.019959   -7.470486    4.436770
     26          7           0       -1.130446   -0.445572    0.763800
     27          1           0       -2.091236   -0.476820    1.077959
     28          6           0       -0.861966    0.171719   -0.537935
     29          1           0       -1.595515    0.985357   -0.621880
     30          6           0        0.522886    0.859742   -0.479007
     31          6           0       -1.017118   -0.759352   -1.788989
     32          1           0       -0.008842   -0.984089   -2.150911
     33          8           0        1.302692    0.859437   -1.440350
     34          6           0       -1.794475   -0.043133   -2.917671
     35          1           0       -1.959130   -0.767363   -3.725120
     36          1           0       -2.796138    0.220263   -2.545476
     37          6           0       -1.709467   -2.091738   -1.461767
     38          1           0       -2.727738   -1.942014   -1.079098
     39          1           0       -1.793823   -2.690705   -2.374770
     40          1           0       -1.146836   -2.684046   -0.735592
     41          6           0       -1.136826    1.204379   -3.518241
     42          1           0       -1.762520    1.617118   -4.317685
     43          1           0       -0.157852    0.956135   -3.945010
     44          1           0       -0.982901    1.997106   -2.776768
     45          7           0        0.783171    1.535249    0.665820
     46          1           0        0.165201    1.363926    1.454457
     47          6           0        2.153170    1.847596    1.045251
     48          1           0        2.768546    0.953127    0.864760
     49          6           0        2.163181    2.040770    2.557934
     50          6           0        2.768094    3.038381    0.253877
     51          1           0        1.987372    3.432393   -0.403423
     52          1           0        3.051881    3.849374    0.932714
     53          8           0        1.213063    1.838998    3.282713
     54          6           0        3.985442    2.590751   -0.563965
     55          1           0        3.757432    1.647628   -1.069161
     56          1           0        4.823374    2.371804    0.110136
     57          6           0        4.506348    3.612641   -1.576435
     58          1           0        4.909949    4.485480   -1.056402
     59          1           0        5.322937    3.171834   -2.159376
     60          7           0        3.508716    4.178313   -2.522755
     61          1           0        3.478946    5.187980   -2.575662
     62          7           0        2.590618    2.240634   -3.447708
     63          1           0        2.253460    1.773428   -4.279485
     64          1           0        2.309521    1.792680   -2.560604
     65          7           0        2.556232    4.236591   -4.629754
     66          1           0        3.029317    5.095740   -4.871840
     67          1           0        1.860846    3.891677   -5.276645
     68          6           0        2.884813    3.538166   -3.524573
     69          8           0        3.373781    2.426534    2.997428
     70          1           0        3.324401    2.485171    3.971158
 ---------------------------------------------------------------------

 SCF Done:  E(RB3LYP) =  -1582.14365990     A.U. after    2 cycles

 Alpha  occ. eigenvalues --  -19.30130 -19.24666 -19.22828 -19.19731 -14.52940
 Alpha  occ. eigenvalues --  -14.52530 -14.50793 -14.45354 -14.44991 -14.43071
 Alpha  occ. eigenvalues --  -14.37992 -10.48580 -10.42681 -10.39476 -10.36313
 Alpha  occ. eigenvalues --  -10.36184 -10.34352 -10.32842 -10.30354 -10.30041
 Alpha  occ. eigenvalues --  -10.29277 -10.27176 -10.27093 -10.26654 -10.26498
 Alpha  occ. eigenvalues --  -10.26475 -10.24871 -10.24743 -10.23474 -10.23473
 Alpha  occ. eigenvalues --  -10.23250 -10.23016 -10.22907 -10.22468  -1.21161
 Alpha  occ. eigenvalues --   -1.16885  -1.14248  -1.12271  -1.11600  -1.06255
 Alpha  occ. eigenvalues --   -1.04760  -1.02909  -1.02874  -1.00694  -0.95385
 Alpha  occ. eigenvalues --   -0.91872  -0.88933  -0.88355  -0.87110  -0.84938
 Alpha  occ. eigenvalues --   -0.82734  -0.81366  -0.80147  -0.79040  -0.78063
 Alpha  occ. eigenvalues --   -0.78007  -0.76119  -0.74301  -0.73209  -0.72440
 Alpha  occ. eigenvalues --   -0.71728  -0.70165  -0.69748  -0.67878  -0.67291
 Alpha  occ. eigenvalues --   -0.66739  -0.65695  -0.65042  -0.64635  -0.63855
 Alpha  occ. eigenvalues --   -0.61928  -0.61041  -0.60758  -0.59757  -0.59362
 Alpha  occ. eigenvalues --   -0.58607  -0.58503  -0.57634  -0.57106  -0.55841
 Alpha  occ. eigenvalues --   -0.55419  -0.55263  -0.55108  -0.54236  -0.53086
 Alpha  occ. eigenvalues --   -0.52725  -0.52289  -0.51852  -0.51536  -0.51207
 Alpha  occ. eigenvalues --   -0.50894  -0.50267  -0.49782  -0.49307  -0.48501
 Alpha  occ. eigenvalues --   -0.48094  -0.47702  -0.47321  -0.47076  -0.46906
 Alpha  occ. eigenvalues --   -0.46129  -0.46049  -0.45481  -0.45120  -0.44608
 Alpha  occ. eigenvalues --   -0.43657  -0.43219  -0.43096  -0.42756  -0.42209
 Alpha  occ. eigenvalues --   -0.41986  -0.41684  -0.41145  -0.40903  -0.39975
 Alpha  occ. eigenvalues --   -0.39665  -0.38331  -0.38004  -0.37891  -0.37069
 Alpha  occ. eigenvalues --   -0.36045  -0.34168  -0.33715  -0.32033  -0.30018
 Alpha  occ. eigenvalues --   -0.26936  -0.25096
 Alpha virt. eigenvalues --   -0.13942  -0.09572  -0.09073  -0.08308  -0.06333
 Alpha virt. eigenvalues --   -0.05705  -0.05281  -0.04220  -0.02292  -0.02221
 Alpha virt. eigenvalues --   -0.01791  -0.01518  -0.00037   0.00601   0.01344

 Mulliken charges:
               1
     1  N   -0.723084
     2  H    0.333657
     3  H    0.298927
     4  C   -0.072182
     5  H    0.112542
     6  C    0.649843
     7  C   -0.358599
     8  H    0.183173
     9  H    0.148962
    10  O   -0.520793
    11  C    0.048227
    12  C   -0.000821
    13  H    0.149183
    14  C    0.060643
    15  C    0.313481
    16  C   -0.219223
    17  H    0.146070
    18  N   -0.687494
    19  H    0.332919
    20  C   -0.150140
    21  H    0.134208
    22  C   -0.161314
    23  H    0.130667
    24  C   -0.139561
    25  H    0.130457
    26  N   -0.639482
    27  H    0.336476
    28  C   -0.041492
    29  H    0.167948
    30  C    0.644241
    31  C   -0.073935
    32  H    0.167789
    33  O   -0.578947
    34  C   -0.264639
    35  H    0.150651
    36  H    0.135987
    37  C   -0.478118
    38  H    0.128514
    39  H    0.160226
    40  H    0.188965
    41  C   -0.445596
    42  H    0.153440
    43  H    0.119334
    44  H    0.133302
    45  N   -0.604101
    46  H    0.367866
    47  C   -0.019586
    48  H    0.219711
    49  C    0.579430
    50  C   -0.272871
    51  H    0.160013
    52  H    0.171489
    53  O   -0.460118
    54  C   -0.310169
    55  H    0.180981
    56  H    0.184700
    57  C   -0.156350
    58  H    0.183474
    59  H    0.195853
    60  N   -0.596792
    61  H    0.362690
    62  N   -0.762458
    63  H    0.369894
    64  H    0.452327
    65  N   -0.752439
    66  H    0.379798
    67  H    0.381981
    68  C    0.768971
    69  O   -0.561565
    70  H    0.432858
 Sum of Mulliken charges =   1.00000

 Dipole moment (field-independent basis, Debye):
    X=              7.6649    Y=             15.5235    Z=             -6.9588  Tot=             18.6589
 Quadrupole moment (field-independent basis, Debye-Ang):
   XX=           -147.2924   YY=           -127.5097   ZZ=            -90.7620
   XY=             60.8188   XZ=            -36.9470   YZ=            -57.3496

 Normal termination of Gaussian 16 at Thu May 26 00:23:43 2022.
