 Gaussian 16, Revision C.01,
 Gaussian 16:  ES64L-G16RevC.01  3-Jul-2019

 -------------------------------------------------------------------
 # B3LYP/6-31G* guess=read geom=check nosymm integral(ultrafinegrid)
 -------------------------------------------------------------------

 ------------------------------------------------------
 Candidate Structure: Conf:448 Charge calc in gas phase
 ------------------------------------------------------
 Structure from the checkpoint file:  "conf-448.chk"
 Charge =  1 Multiplicity = 1

                          Input orientation:
 ---------------------------------------------------------------------
 Center     Atomic      Atomic             Coordinates (Angstroms)
 Number     Number       Type             X           Y           Z
 ---------------------------------------------------------------------
      1          7           0       -0.969579   -4.620655    2.040355
      2          1           0       -1.547960   -4.981538    1.282626
      3          1           0       -0.012984   -4.901440    1.820082
      4          6           0       -1.017286   -3.161739    2.060354
      5          1           0       -2.070199   -2.853454    2.059584
      6          6           0       -0.290454   -2.543760    0.854256
      7          6           0       -0.355793   -2.625574    3.356868
      8          1           0        0.650408   -3.067007    3.408998
      9          1           0       -0.203221   -1.545505    3.247343
     10          8           0        0.729022   -3.037302    0.382301
     11          6           0       -1.142902   -2.873282    4.611897
     12          6           0       -1.669912   -4.060285    5.064047
     13          1           0       -1.638358   -5.036220    4.603288
     14          6           0       -1.479085   -1.873901    5.597836
     15          6           0       -2.215840   -2.527041    6.624886
     16          6           0       -1.233218   -0.494186    5.720164
     17          1           0       -0.673456    0.039991    4.954351
     18          7           0       -2.314274   -3.855652    6.267290
     19          1           0       -2.783496   -4.570942    6.801076
     20          6           0       -2.442964   -0.484956    7.835602
     21          1           0       -2.806462    0.072235    8.694195
     22          6           0       -2.702873   -1.847244    7.746032
     23          1           0       -3.263381   -2.364062    8.520533
     24          6           0       -1.714823    0.185954    6.831361
     25          1           0       -1.529764    1.251855    6.933093
     26          7           0       -0.790697   -1.353600    0.372710
     27          1           0       -1.724224   -1.085649    0.656746
     28          6           0       -0.279342   -0.772988   -0.872771
     29          1           0       -0.726827    0.229272   -0.931287
     30          6           0        1.247593   -0.556551   -0.736859
     31          6           0       -0.647853   -1.540450   -2.173361
     32          1           0        0.078985   -2.351989   -2.287153
     33          8           0        2.045203   -0.818144   -1.645764
     34          6           0       -0.530042   -0.590886   -3.388836
     35          1           0       -1.398062    0.084342   -3.396867
     36          1           0        0.353252    0.046929   -3.271420
     37          6           0       -2.055809   -2.148105   -2.090406
     38          1           0       -2.815993   -1.380457   -1.892860
     39          1           0       -2.321054   -2.632496   -3.034775
     40          1           0       -2.129138   -2.909684   -1.308667
     41          6           0       -0.434653   -1.313678   -4.737265
     42          1           0       -0.342058   -0.596547   -5.560817
     43          1           0       -1.317440   -1.927784   -4.941757
     44          1           0        0.436977   -1.981334   -4.764954
     45          7           0        1.645283    0.021509    0.419857
     46          1           0        0.960763    0.075489    1.165154
     47          6           0        3.050732    0.089671    0.812217
     48          1           0        3.569264   -0.743375    0.326707
     49          6           0        3.239112   -0.133811    2.313794
     50          6           0        3.741845    1.425657    0.436692
     51          1           0        3.170236    2.246024    0.886043
     52          1           0        4.729429    1.427694    0.912382
     53          8           0        4.323020   -0.276407    2.823038
     54          6           0        3.885456    1.693294   -1.069843
     55          1           0        4.249213    2.720650   -1.200918
     56          1           0        2.909758    1.636544   -1.562530
     57          6           0        4.862738    0.728567   -1.755412
     58          1           0        5.856716    0.798585   -1.301122
     59          1           0        4.531582   -0.305872   -1.657012
     60          7           0        5.032788    1.005560   -3.191743
     61          1           0        5.581504    1.819645   -3.438176
     62          7           0        3.456663   -0.513602   -4.000988
     63          1           0        3.166877   -1.123813   -4.752310
     64          1           0        2.949995   -0.603528   -3.108847
     65          7           0        4.846540    0.629330   -5.462876
     66          1           0        5.762182    1.015929   -5.641306
     67          1           0        4.330533    0.285442   -6.259515
     68          6           0        4.435099    0.364311   -4.203568
     69          8           0        2.077435   -0.113518    3.007061
     70          1           0        2.293811   -0.261676    3.948408
 ---------------------------------------------------------------------

 SCF Done:  E(RB3LYP) =  -1582.15896697     A.U. after    1 cycles

 Alpha  occ. eigenvalues --  -19.30275 -19.23868 -19.23716 -19.20965 -14.52536
 Alpha  occ. eigenvalues --  -14.52417 -14.50944 -14.46841 -14.45892 -14.42892
 Alpha  occ. eigenvalues --  -14.38944 -10.48560 -10.42413 -10.40566 -10.37221
 Alpha  occ. eigenvalues --  -10.35677 -10.34849 -10.33817 -10.30742 -10.30260
 Alpha  occ. eigenvalues --  -10.30195 -10.28195 -10.27271 -10.26687 -10.26562
 Alpha  occ. eigenvalues --  -10.26531 -10.26180 -10.26170 -10.23730 -10.23691
 Alpha  occ. eigenvalues --  -10.23418 -10.23337 -10.23139 -10.22989  -1.20859
 Alpha  occ. eigenvalues --   -1.16887  -1.15241  -1.12708  -1.11882  -1.06321
 Alpha  occ. eigenvalues --   -1.04746  -1.03904  -1.02730  -1.01668  -0.96370
 Alpha  occ. eigenvalues --   -0.92086  -0.90028  -0.88654  -0.87272  -0.85438
 Alpha  occ. eigenvalues --   -0.83467  -0.81736  -0.80590  -0.79313  -0.78280
 Alpha  occ. eigenvalues --   -0.78095  -0.76313  -0.74362  -0.73657  -0.73010
 Alpha  occ. eigenvalues --   -0.72082  -0.71010  -0.69766  -0.69021  -0.67930
 Alpha  occ. eigenvalues --   -0.66971  -0.66065  -0.65513  -0.64886  -0.64023
 Alpha  occ. eigenvalues --   -0.62886  -0.61568  -0.61371  -0.60927  -0.59277
 Alpha  occ. eigenvalues --   -0.58693  -0.58625  -0.58118  -0.57721  -0.57066
 Alpha  occ. eigenvalues --   -0.56748  -0.55191  -0.54946  -0.54720  -0.54098
 Alpha  occ. eigenvalues --   -0.53078  -0.52653  -0.52076  -0.51949  -0.51492
 Alpha  occ. eigenvalues --   -0.51228  -0.50366  -0.50146  -0.49826  -0.49474
 Alpha  occ. eigenvalues --   -0.48362  -0.48139  -0.47788  -0.47382  -0.46926
 Alpha  occ. eigenvalues --   -0.46728  -0.46612  -0.46068  -0.45858  -0.45658
 Alpha  occ. eigenvalues --   -0.44877  -0.44223  -0.43134  -0.43090  -0.42865
 Alpha  occ. eigenvalues --   -0.42297  -0.41788  -0.41691  -0.41287  -0.40766
 Alpha  occ. eigenvalues --   -0.40188  -0.38759  -0.38425  -0.38129  -0.37822
 Alpha  occ. eigenvalues --   -0.36261  -0.35355  -0.34612  -0.32442  -0.31141
 Alpha  occ. eigenvalues --   -0.27051  -0.25080
 Alpha virt. eigenvalues --   -0.12510  -0.09616  -0.09211  -0.08525  -0.07442
 Alpha virt. eigenvalues --   -0.05871  -0.04748  -0.04520  -0.03421  -0.02314
 Alpha virt. eigenvalues --   -0.01935  -0.01653   0.00123   0.00568   0.00888

 Mulliken charges:
               1
     1  N   -0.692464
     2  H    0.306225
     3  H    0.318442
     4  C   -0.080301
     5  H    0.143813
     6  C    0.594133
     7  C   -0.351545
     8  H    0.157483
     9  H    0.142957
    10  O   -0.521110
    11  C    0.062076
    12  C    0.014988
    13  H    0.177739
    14  C    0.073079
    15  C    0.315230
    16  C   -0.220521
    17  H    0.097837
    18  N   -0.690459
    19  H    0.333842
    20  C   -0.152597
    21  H    0.133130
    22  C   -0.158933
    23  H    0.132297
    24  C   -0.136918
    25  H    0.122034
    26  N   -0.634349
    27  H    0.341889
    28  C   -0.053031
    29  H    0.169301
    30  C    0.659404
    31  C   -0.061478
    32  H    0.163730
    33  O   -0.583284
    34  C   -0.265302
    35  H    0.141701
    36  H    0.122754
    37  C   -0.468707
    38  H    0.141514
    39  H    0.167140
    40  H    0.150346
    41  C   -0.454718
    42  H    0.147832
    43  H    0.169057
    44  H    0.127205
    45  N   -0.600656
    46  H    0.374345
    47  C   -0.055014
    48  H    0.207911
    49  C    0.600114
    50  C   -0.279703
    51  H    0.168505
    52  H    0.184115
    53  O   -0.438368
    54  C   -0.266538
    55  H    0.156068
    56  H    0.162763
    57  C   -0.171758
    58  H    0.190757
    59  H    0.201410
    60  N   -0.600984
    61  H    0.360943
    62  N   -0.793726
    63  H    0.371621
    64  H    0.463156
    65  N   -0.765656
    66  H    0.380036
    67  H    0.380176
    68  C    0.811053
    69  O   -0.580944
    70  H    0.438914
 Sum of Mulliken charges =   1.00000

 Dipole moment (field-independent basis, Debye):
    X=             12.2223    Y=              0.7397    Z=            -12.7728  Tot=             17.6939
 Quadrupole moment (field-independent basis, Debye-Ang):
   XX=           -114.2961   YY=           -176.4407   ZZ=            -95.6093
   XY=             33.2909   XZ=            -82.6732   YZ=            -18.4928

 Normal termination of Gaussian 16 at Thu May 26 00:20:20 2022.
