 Gaussian 16, Revision C.01,
 Gaussian 16:  ES64L-G16RevC.01  3-Jul-2019

 -------------------------------------------------------------------
 # B3LYP/6-31G* guess=read geom=check nosymm integral(ultrafinegrid)
 -------------------------------------------------------------------

 ------------------------------------------------------
 Candidate Structure: Conf:156 Charge calc in gas phase
 ------------------------------------------------------
 Structure from the checkpoint file:  "conf-156.chk"
 Charge =  1 Multiplicity = 1

                          Input orientation:
 ---------------------------------------------------------------------
 Center     Atomic      Atomic             Coordinates (Angstroms)
 Number     Number       Type             X           Y           Z
 ---------------------------------------------------------------------
      1          7           0       -2.605822   -2.544514    2.362369
      2          1           0       -3.313492   -1.909762    1.995846
      3          1           0       -2.591661   -3.363010    1.754664
      4          6           0       -1.274792   -1.921437    2.390580
      5          1           0       -1.354721   -1.027751    3.021291
      6          6           0       -0.778983   -1.487579    1.003478
      7          6           0       -0.263351   -2.893312    3.042146
      8          1           0       -0.520278   -3.913071    2.727087
      9          1           0        0.729527   -2.704720    2.625582
     10          8           0       -0.135355   -2.207216    0.247351
     11          6           0       -0.202140   -2.761894    4.537521
     12          6           0       -1.246475   -2.768386    5.432154
     13          1           0       -2.299868   -2.927306    5.248377
     14          6           0        0.989125   -2.499850    5.304753
     15          6           0        0.591815   -2.334489    6.661427
     16          6           0        2.358674   -2.394685    4.983805
     17          1           0        2.719290   -2.622405    3.982511
     18          7           0       -0.775174   -2.510537    6.705075
     19          1           0       -1.341654   -2.485362    7.539027
     20          6           0        2.846523   -1.910055    7.324074
     21          1           0        3.579902   -1.680639    8.091491
     22          6           0        1.507413   -2.040412    7.676959
     23          1           0        1.186104   -1.918373    8.708083
     24          6           0        3.270224   -2.092164    5.992024
     25          1           0        4.327189   -2.018919    5.752317
     26          7           0       -1.070526   -0.185738    0.656038
     27          1           0       -1.716774    0.344225    1.224449
     28          6           0       -0.716013    0.337443   -0.664987
     29          1           0       -0.926762    1.413111   -0.612046
     30          6           0        0.819561    0.208333   -0.839584
     31          6           0       -1.505759   -0.259727   -1.864739
     32          1           0       -0.998819   -1.186980   -2.146788
     33          8           0        1.345590   -0.119881   -1.909962
     34          6           0       -1.461171    0.684397   -3.093113
     35          1           0       -0.415298    0.918927   -3.320847
     36          1           0       -1.838942    0.118170   -3.954659
     37          6           0       -2.951079   -0.609608   -1.479951
     38          1           0       -3.492557    0.246561   -1.060001
     39          1           0       -3.501754   -0.942176   -2.366794
     40          1           0       -2.987055   -1.423098   -0.750079
     41          6           0       -2.264720    1.987730   -2.979265
     42          1           0       -2.141136    2.589534   -3.886222
     43          1           0       -1.943307    2.611749   -2.135310
     44          1           0       -3.336233    1.799510   -2.859125
     45          7           0        1.547655    0.557970    0.249361
     46          1           0        1.016831    0.692137    1.103289
     47          6           0        2.937267    0.144744    0.450920
     48          1           0        3.126923   -0.706155   -0.213261
     49          6           0        3.141785   -0.394653    1.876879
     50          6           0        4.012154    1.229262    0.176134
     51          1           0        3.680609    2.182442    0.608252
     52          1           0        4.905845    0.924360    0.727549
     53          8           0        4.166504   -0.930974    2.224017
     54          6           0        4.422844    1.404029   -1.297862
     55          1           0        4.521297    0.418004   -1.767197
     56          1           0        5.419467    1.862361   -1.328614
     57          6           0        3.472735    2.270218   -2.136137
     58          1           0        2.447343    1.904402   -2.092625
     59          1           0        3.464308    3.302395   -1.773258
     60          7           0        3.874939    2.328035   -3.553201
     61          1           0        4.664787    2.922220   -3.771183
     62          7           0        2.687298    0.443645   -4.252310
     63          1           0        2.301622   -0.090168   -5.018635
     64          1           0        2.304863    0.236840   -3.317668
     65          7           0        4.009804    1.617688   -5.749598
     66          1           0        4.469330    2.473540   -6.023938
     67          1           0        3.827369    0.941672   -6.476531
     68          6           0        3.513846    1.454521   -4.504565
     69          8           0        2.081403   -0.185213    2.683799
     70          1           0        2.270120   -0.588824    3.562897
 ---------------------------------------------------------------------

 SCF Done:  E(RB3LYP) =  -1582.15300410     A.U. after    1 cycles

 Alpha  occ. eigenvalues --  -19.29003 -19.23601 -19.23029 -19.20474 -14.52420
 Alpha  occ. eigenvalues --  -14.52393 -14.50881 -14.46410 -14.45679 -14.43744
 Alpha  occ. eigenvalues --  -14.40248 -10.48542 -10.41617 -10.40247 -10.36952
 Alpha  occ. eigenvalues --  -10.35615 -10.34340 -10.33480 -10.30732 -10.30221
 Alpha  occ. eigenvalues --  -10.29893 -10.27689 -10.27661 -10.27405 -10.26648
 Alpha  occ. eigenvalues --  -10.25809 -10.25703 -10.25569 -10.24836 -10.24549
 Alpha  occ. eigenvalues --  -10.24432 -10.24129 -10.24077 -10.23987  -1.19732
 Alpha  occ. eigenvalues --   -1.16871  -1.15004  -1.12317  -1.10905  -1.06290
 Alpha  occ. eigenvalues --   -1.04724  -1.03636  -1.03577  -1.01311  -0.96939
 Alpha  occ. eigenvalues --   -0.91702  -0.89635  -0.89452  -0.86965  -0.85960
 Alpha  occ. eigenvalues --   -0.83018  -0.81306  -0.80645  -0.79441  -0.79118
 Alpha  occ. eigenvalues --   -0.77911  -0.76927  -0.74408  -0.73225  -0.73155
 Alpha  occ. eigenvalues --   -0.71865  -0.70803  -0.69778  -0.68927  -0.67965
 Alpha  occ. eigenvalues --   -0.67418  -0.65728  -0.64903  -0.64803  -0.64370
 Alpha  occ. eigenvalues --   -0.62343  -0.61922  -0.61304  -0.60348  -0.59843
 Alpha  occ. eigenvalues --   -0.59456  -0.58305  -0.58163  -0.57219  -0.56953
 Alpha  occ. eigenvalues --   -0.56291  -0.55648  -0.54652  -0.54050  -0.53802
 Alpha  occ. eigenvalues --   -0.53694  -0.52689  -0.52559  -0.52320  -0.51472
 Alpha  occ. eigenvalues --   -0.50841  -0.50212  -0.49544  -0.49476  -0.49287
 Alpha  occ. eigenvalues --   -0.48672  -0.48383  -0.47908  -0.47300  -0.47115
 Alpha  occ. eigenvalues --   -0.46467  -0.46373  -0.46141  -0.45921  -0.45030
 Alpha  occ. eigenvalues --   -0.44647  -0.43980  -0.43359  -0.42925  -0.42795
 Alpha  occ. eigenvalues --   -0.41707  -0.41233  -0.41115  -0.40773  -0.40636
 Alpha  occ. eigenvalues --   -0.40442  -0.39373  -0.39082  -0.38447  -0.37501
 Alpha  occ. eigenvalues --   -0.36073  -0.35622  -0.34322  -0.33334  -0.30954
 Alpha  occ. eigenvalues --   -0.28067  -0.25974
 Alpha virt. eigenvalues --   -0.12081  -0.09646  -0.08854  -0.08544  -0.07521
 Alpha virt. eigenvalues --   -0.06975  -0.04851  -0.03966  -0.03454  -0.02896
 Alpha virt. eigenvalues --   -0.01391  -0.00381   0.00218   0.00318   0.00782

 Mulliken charges:
               1
     1  N   -0.706266
     2  H    0.302980
     3  H    0.317824
     4  C   -0.075348
     5  H    0.146664
     6  C    0.620464
     7  C   -0.338698
     8  H    0.167236
     9  H    0.156793
    10  O   -0.520669
    11  C    0.059134
    12  C    0.008331
    13  H    0.176087
    14  C    0.082775
    15  C    0.319048
    16  C   -0.311963
    17  H    0.157865
    18  N   -0.689250
    19  H    0.335897
    20  C   -0.152669
    21  H    0.138001
    22  C   -0.155610
    23  H    0.137353
    24  C   -0.135588
    25  H    0.140880
    26  N   -0.649419
    27  H    0.336191
    28  C   -0.044328
    29  H    0.163960
    30  C    0.647075
    31  C   -0.063669
    32  H    0.170758
    33  O   -0.577969
    34  C   -0.273408
    35  H    0.120762
    36  H    0.145142
    37  C   -0.468627
    38  H    0.140128
    39  H    0.163109
    40  H    0.150186
    41  C   -0.458266
    42  H    0.153787
    43  H    0.136508
    44  H    0.165293
    45  N   -0.597369
    46  H    0.370505
    47  C   -0.046845
    48  H    0.207086
    49  C    0.597859
    50  C   -0.283676
    51  H    0.157347
    52  H    0.199539
    53  O   -0.445748
    54  C   -0.272137
    55  H    0.163233
    56  H    0.158710
    57  C   -0.181885
    58  H    0.195741
    59  H    0.186795
    60  N   -0.598269
    61  H    0.358741
    62  N   -0.793819
    63  H    0.371251
    64  H    0.460931
    65  N   -0.770157
    66  H    0.380144
    67  H    0.381759
    68  C    0.824423
    69  O   -0.601914
    70  H    0.439269
 Sum of Mulliken charges =   1.00000

 Dipole moment (field-independent basis, Debye):
    X=              8.6842    Y=              7.9492    Z=            -11.1536  Tot=             16.2175
 Quadrupole moment (field-independent basis, Debye-Ang):
   XX=           -135.1740   YY=           -185.4457   ZZ=            -67.6252
   XY=             38.2050   XZ=            -71.2005   YZ=            -31.1930

 Normal termination of Gaussian 16 at Thu May 26 00:20:31 2022.
