 Gaussian 16, Revision C.01,
 Gaussian 16:  ES64L-G16RevC.01  3-Jul-2019

 ----------------------------------------------------------------------
 # B3LYP/6-31G* empiricaldispersion=gd3 guess=read geom=check nosymm in
 tegral(ultrafinegrid)
 ----------------------------------------------------------------------

 ------------------------------------------------------
 Candidate Structure: Conf:961 Charge calc in gas phase
 ------------------------------------------------------
 Structure from the checkpoint file:  "conf-961.chk"
 Charge =  1 Multiplicity = 1

                          Input orientation:
 ---------------------------------------------------------------------
 Center     Atomic      Atomic             Coordinates (Angstroms)
 Number     Number       Type             X           Y           Z
 ---------------------------------------------------------------------
      1          7           0        0.708689   -4.434594   -3.137455
      2          1           0        1.501743   -4.324031   -2.371945
      3          1           0       -0.049457   -5.077677   -2.825508
      4          1           0        1.115798   -4.685545   -4.060799
      5          6           0        0.047372   -3.089122   -3.354672
      6          1           0        0.742018   -2.337982   -2.971456
      7          6           0       -1.258399   -3.126806   -2.551787
      8          6           0       -0.256113   -2.922425   -4.856914
      9          1           0       -1.141861   -3.521808   -5.113697
     10          8           0       -1.806295   -4.209683   -2.272110
     11          6           0       -0.461902   -1.449014   -5.223503
     12          1           0       -1.317073   -1.020236   -4.690703
     13          1           0       -0.646746   -1.345726   -6.298064
     14          1           0        0.442437   -0.887839   -4.967269
     15          8           0        0.945817   -3.482931   -5.496121
     16          1           0        0.821639   -3.489287   -6.480642
     17          7           0       -1.700131   -1.898282   -2.225833
     18          1           0       -1.223045   -1.065847   -2.565090
     19          6           0       -2.863393   -1.593544   -1.402813
     20          1           0       -3.628768   -2.363472   -1.524380
     21          6           0       -3.301764   -0.176856   -1.849448
     22          6           0       -2.423976   -1.463358    0.099202
     23          1           0       -1.691893   -0.651267    0.128197
     24          1           0       -3.276211   -1.152929    0.711231
     25          8           0       -2.654417    0.446702   -2.719334
     26          6           0       -1.817152   -2.734516    0.645203
     27          6           0       -2.584116   -3.628445    1.400962
     28          1           0       -3.612921   -3.381976    1.642734
     29          6           0       -0.488818   -3.062967    0.344926
     30          1           0        0.100422   -2.392393   -0.267430
     31          6           0       -2.037223   -4.837405    1.837199
     32          1           0       -2.641042   -5.521893    2.421510
     33          6           0        0.050000   -4.286297    0.749385
     34          1           0        1.049530   -4.551449    0.430536
     35          6           0       -0.723063   -5.173278    1.502842
     36          1           0       -0.309333   -6.124735    1.816418
     37          7           0       -4.299576    0.386380   -1.118853
     38          1           0       -4.776836   -0.153680   -0.399076
     39          6           0       -4.289982    1.849160   -0.834351
     40          1           0       -3.641141    2.309627   -1.578837
     41          6           0       -3.714003    1.904403    0.599246
     42          6           0       -5.714569    2.407783   -0.846521
     43          1           0       -5.703815    3.488106   -0.670121
     44          1           0       -6.282850    1.929696   -0.042487
     45          1           0       -6.190081    2.202491   -1.808538
     46          8           0       -4.307405    1.286253    1.513186
     47          7           0       -2.529060    2.533815    0.771431
     48          1           0       -2.014410    2.981815    0.012573
     49          6           0       -1.814261    2.512323    2.057644
     50          1           0       -2.424561    2.954222    2.848797
     51          6           0       -0.512802    3.294769    1.842599
     52          6           0       -1.469524    1.026286    2.417704
     53          1           0       -0.839990    0.632432    1.615007
     54          1           0       -2.424700    0.499964    2.403402
     55          8           0       -0.077214    3.527023    0.685351
     56          6           0       -0.758862    0.744279    3.773394
     57          1           0       -0.815977   -0.328518    3.964281
     58          1           0        0.291200    1.045303    3.735411
     59          6           0       -1.431259    1.471895    4.904470
     60          8           0       -1.364442    2.697473    5.102976
     61          8           0       -2.172057    0.654251    5.698080
     62          7           0        0.154711    3.585225    2.979426
     63          1           0       -0.308676    3.403392    3.887128
     64          6           0        1.611386    3.877484    2.968167
     65          1           0        1.821591    4.663378    2.240001
     66          6           0        2.217971    2.523068    2.534893
     67          6           0        2.054386    4.250262    4.380729
     68          1           0        3.114889    4.518970    4.389464
     69          1           0        1.903530    3.385823    5.034057
     70          1           0        1.471587    5.097138    4.751565
     71          8           0        2.381371    1.579186    3.352231
     72          7           0        2.377461    2.376562    1.201212
     73          1           0        2.047396    3.144381    0.617209
     74          6           0        2.287910    1.065115    0.549837
     75          1           0        1.285403    0.659014    0.723055
     76          6           0        3.304160    0.011936    0.958947
     77          6           0        2.515871    1.227593   -0.980982
     78          1           0        3.461362    1.765188   -1.113777
     79          1           0        2.608918    0.217731   -1.390966
     80          8           0        4.538808    0.229575    1.120429
     81          6           0        1.353585    1.912772   -1.737179
     82          1           0        1.209560    2.943397   -1.392469
     83          6           0        1.699650    1.917215   -3.243213
     84          1           0        1.777118    0.883364   -3.604606
     85          1           0        2.653115    2.423259   -3.433015
     86          1           0        0.914997    2.425497   -3.813644
     87          6           0        0.046705    1.134057   -1.502642
     88          1           0        0.248524    0.059301   -1.582182
     89          1           0       -0.719523    1.402746   -2.231736
     90          1           0       -0.358852    1.354024   -0.511957
     91          7           0        2.788035   -1.242586    0.915476
     92          1           0        1.780129   -1.305033    0.791253
     93          6           0        3.501562   -2.384339    0.281532
     94          1           0        4.446669   -1.986058   -0.108099
     95          6           0        2.594428   -2.768701   -0.955337
     96          6           0        3.760423   -3.611276    1.174776
     97          1           0        3.727652   -4.461302    0.487182
     98          1           0        2.921237   -3.725892    1.870873
     99          8           0        1.919128   -1.820012   -1.481807
    100          6           0        5.110044   -3.658198    1.933993
    101          1           0        5.916546   -3.264561    1.301894
    102          1           0        5.350821   -4.708975    2.133606
    103          6           0        5.134168   -2.939138    3.295156
    104          1           0        6.040606   -3.217076    3.847639
    105          1           0        4.256428   -3.267063    3.870446
    106          7           0        5.093890   -1.476674    3.116743
    107          1           0        5.095465   -1.065175    2.164072
    108          7           0        4.641650   -1.011395    5.363482
    109          1           0        4.603057   -0.334836    6.115761
    110          1           0        4.572091   -1.991377    5.602188
    111          7           0        4.883332    0.719370    3.823752
    112          1           0        4.969923    0.948393    2.825843
    113          1           0        4.193439    1.304197    4.296693
    114          6           0        4.870064   -0.603083    4.098238
    115          8           0        2.564402   -4.004217   -1.301575
    116          1           0       -2.626891    1.190682    6.408036
 ---------------------------------------------------------------------

 SCF Done:  E(RB3LYP) =  -2782.49069072     A.U. after   13 cycles

 Alpha  occ. eigenvalues --  -19.29521 -19.25190 -19.24425 -19.22943 -19.22296
 Alpha  occ. eigenvalues --  -19.21857 -19.21042 -19.20645 -19.19759 -19.19632
 Alpha  occ. eigenvalues --  -19.18596 -14.49137 -14.48732 -14.47280 -14.45887
 Alpha  occ. eigenvalues --  -14.45589 -14.45547 -14.45127 -14.45095 -14.44807
 Alpha  occ. eigenvalues --  -14.44721 -10.43932 -10.42588 -10.39528 -10.38994
 Alpha  occ. eigenvalues --  -10.38664 -10.38096 -10.37889 -10.37258 -10.37224
 Alpha  occ. eigenvalues --  -10.34279 -10.33544 -10.33359 -10.32963 -10.32945
 Alpha  occ. eigenvalues --  -10.32693 -10.32060 -10.31983 -10.31789 -10.29010
 Alpha  occ. eigenvalues --  -10.28890 -10.28768 -10.27740 -10.27209 -10.27019
 Alpha  occ. eigenvalues --  -10.26672 -10.26374 -10.26104 -10.26082 -10.25698
 Alpha  occ. eigenvalues --  -10.25628 -10.25523 -10.25352 -10.25341 -10.25243
 Alpha  occ. eigenvalues --  -10.23986 -10.23644  -1.19232  -1.13869  -1.13155
 Alpha  occ. eigenvalues --   -1.12511  -1.12190  -1.12146  -1.11768  -1.11281
 Alpha  occ. eigenvalues --   -1.10803  -1.10653  -1.10616  -1.03620  -1.02734
 Alpha  occ. eigenvalues --   -1.02349  -1.01979  -1.01615  -1.01583  -1.01208
 Alpha  occ. eigenvalues --   -1.00816  -1.00645  -1.00136  -0.92409  -0.89943
 Alpha  occ. eigenvalues --   -0.89351  -0.88576  -0.88211  -0.86565  -0.86105
 Alpha  occ. eigenvalues --   -0.84727  -0.84573  -0.82163  -0.81836  -0.81161
 Alpha  occ. eigenvalues --   -0.81068  -0.78076  -0.77078  -0.75409  -0.75243
 Alpha  occ. eigenvalues --   -0.74598  -0.74586  -0.73887  -0.72625  -0.72197
 Alpha  occ. eigenvalues --   -0.70531  -0.70005  -0.69401  -0.68917  -0.68573
 Alpha  occ. eigenvalues --   -0.67925  -0.67780  -0.67388  -0.67104  -0.66764
 Alpha  occ. eigenvalues --   -0.66372  -0.65930  -0.65542  -0.65196  -0.63988
 Alpha  occ. eigenvalues --   -0.63576  -0.63145  -0.61835  -0.61646  -0.60445
 Alpha  occ. eigenvalues --   -0.59995  -0.59855  -0.59626  -0.59393  -0.59125
 Alpha  occ. eigenvalues --   -0.58812  -0.58423  -0.57992  -0.57664  -0.57327
 Alpha  occ. eigenvalues --   -0.56733  -0.56358  -0.56114  -0.55785  -0.55767
 Alpha  occ. eigenvalues --   -0.55016  -0.54951  -0.54682  -0.54355  -0.54230
 Alpha  occ. eigenvalues --   -0.53794  -0.53522  -0.52966  -0.52783  -0.52364
 Alpha  occ. eigenvalues --   -0.52051  -0.51944  -0.51702  -0.51490  -0.51001
 Alpha  occ. eigenvalues --   -0.50697  -0.50504  -0.50281  -0.50047  -0.49879
 Alpha  occ. eigenvalues --   -0.49540  -0.49459  -0.49310  -0.49204  -0.48846
 Alpha  occ. eigenvalues --   -0.48715  -0.48282  -0.47861  -0.47784  -0.47595
 Alpha  occ. eigenvalues --   -0.47301  -0.47177  -0.47000  -0.46826  -0.46467
 Alpha  occ. eigenvalues --   -0.46306  -0.45806  -0.45790  -0.45768  -0.45643
 Alpha  occ. eigenvalues --   -0.45276  -0.45003  -0.44844  -0.44588  -0.44365
 Alpha  occ. eigenvalues --   -0.44256  -0.44011  -0.43774  -0.43640  -0.43236
 Alpha  occ. eigenvalues --   -0.43045  -0.42635  -0.42425  -0.42302  -0.41269
 Alpha  occ. eigenvalues --   -0.40950  -0.40854  -0.39778  -0.39738  -0.39431
 Alpha  occ. eigenvalues --   -0.39222  -0.37983  -0.37719  -0.37473  -0.37206
 Alpha  occ. eigenvalues --   -0.37052  -0.36176  -0.35829  -0.35413  -0.35329
 Alpha  occ. eigenvalues --   -0.35116  -0.34635  -0.34361  -0.34181  -0.34035
 Alpha  occ. eigenvalues --   -0.33698  -0.33321  -0.32539  -0.31975  -0.31644
 Alpha  occ. eigenvalues --   -0.30909
 Alpha virt. eigenvalues --   -0.10316  -0.10083  -0.09435  -0.09019  -0.08474
 Alpha virt. eigenvalues --   -0.07962  -0.07615  -0.07012  -0.06750  -0.05518
 Alpha virt. eigenvalues --   -0.05085  -0.04549  -0.02598  -0.02327  -0.01661

 Mulliken charges:
               1
     1  N   -0.808651
     2  H    0.450836
     3  H    0.392687
     4  H    0.404438
     5  C   -0.120136
     6  H    0.248223
     7  C    0.627654
     8  C    0.128797
     9  H    0.159252
    10  O   -0.540403
    11  C   -0.495121
    12  H    0.187459
    13  H    0.163854
    14  H    0.180099
    15  O   -0.654673
    16  H    0.415772
    17  N   -0.605073
    18  H    0.381328
    19  C   -0.067490
    20  H    0.203224
    21  C    0.616759
    22  C   -0.393385
    23  H    0.159069
    24  H    0.168387
    25  O   -0.528701
    26  C    0.186061
    27  C   -0.178529
    28  H    0.130487
    29  C   -0.248179
    30  H    0.161095
    31  C   -0.124574
    32  H    0.142620
    33  C   -0.168223
    34  H    0.161183
    35  C   -0.132700
    36  H    0.136523
    37  N   -0.581329
    38  H    0.351622
    39  C   -0.067289
    40  H    0.186236
    41  C    0.639709
    42  C   -0.453926
    43  H    0.166689
    44  H    0.178968
    45  H    0.175258
    46  O   -0.557843
    47  N   -0.631315
    48  H    0.370138
    49  C   -0.036042
    50  H    0.201692
    51  C    0.605406
    52  C   -0.320991
    53  H    0.165550
    54  H    0.222410
    55  O   -0.565731
    56  C   -0.395674
    57  H    0.189594
    58  H    0.220791
    59  C    0.612428
    60  O   -0.495240
    61  O   -0.548660
    62  N   -0.639185
    63  H    0.412358
    64  C   -0.032935
    65  H    0.181152
    66  C    0.606652
    67  C   -0.480559
    68  H    0.169094
    69  H    0.170817
    70  H    0.181401
    71  O   -0.582319
    72  N   -0.577277
    73  H    0.374960
    74  C   -0.044895
    75  H    0.160519
    76  C    0.635727
    77  C   -0.324670
    78  H    0.160547
    79  H    0.206530
    80  O   -0.599952
    81  C   -0.085255
    82  H    0.146817
    83  C   -0.452789
    84  H    0.149414
    85  H    0.148990
    86  H    0.154222
    87  C   -0.528452
    88  H    0.158991
    89  H    0.190747
    90  H    0.138904
    91  N   -0.562341
    92  H    0.351896
    93  C   -0.078016
    94  H    0.187464
    95  C    0.606911
    96  C   -0.275751
    97  H    0.205354
    98  H    0.148070
    99  O   -0.562866
   100  C   -0.316460
   101  H    0.166285
   102  H    0.171182
   103  C   -0.141931
   104  H    0.179230
   105  H    0.158017
   106  N   -0.622694
   107  H    0.408614
   108  N   -0.767778
   109  H    0.376209
   110  H    0.377100
   111  N   -0.765426
   112  H    0.397206
   113  H    0.364813
   114  C    0.792012
   115  O   -0.596986
   116  H    0.427910
 Sum of Mulliken charges =   1.00000

 Dipole moment (field-independent basis, Debye):
    X=              7.1073    Y=             -3.8803    Z=              8.2801  Tot=             11.5815
 Quadrupole moment (field-independent basis, Debye-Ang):
   XX=           -272.7710   YY=           -286.0418   ZZ=           -211.4882
   XY=            -19.3745   XZ=             46.0037   YZ=             16.1746

 Normal termination of Gaussian 16 at Wed Jul 20 06:14:38 2022.
